      -----------------------------------------------------------      
     |                   =====================                   |     
     |                           x T B                           |     
     |                   =====================                   |     
     |                         S. Grimme                         |     
     |          Mulliken Center for Theoretical Chemistry        |     
     |                    University of Bonn                     |     
      -----------------------------------------------------------      

   * xtb version 6.7.1 (26dd68d) compiled by 'froitzheim@fs7' on 2026-05-14

   xtb is free software: you can redistribute it and/or modify it under
   the terms of the GNU Lesser General Public License as published by
   the Free Software Foundation, either version 3 of the License, or
   (at your option) any later version.
   
   xtb is distributed in the hope that it will be useful,
   but WITHOUT ANY WARRANTY; without even the implied warranty of
   MERCHANTABILITY or FITNESS FOR A PARTICULAR PURPOSE.  See the
   GNU Lesser General Public License for more details.
   
   Cite this work as:
   * C. Bannwarth, E. Caldeweyher, S. Ehlert, A. Hansen, P. Pracht,
     J. Seibert, S. Spicher, S. Grimme, WIREs Comput. Mol. Sci., 2020, 11,
     e01493. DOI: 10.1002/wcms.1493
   
   for g-xTB:
   * T. Froitzheim, M. Müller, A. Hansen, S. Grimme, ChemRxiv, 2025, preprint.
     DOI: 10.26434/chemrxiv-2025-bjxv
   for GFN2-xTB:
   * C. Bannwarth, S. Ehlert and S. Grimme., J. Chem. Theory Comput., 2019,
     15, 1652-1671. DOI: 10.1021/acs.jctc.8b01176
   for GFN1-xTB:
   * S. Grimme, C. Bannwarth, P. Shushkov, J. Chem. Theory Comput., 2017,
     13, 1989-2009. DOI: 10.1021/acs.jctc.7b00118
   for GFN0-xTB:
   * P. Pracht, E. Caldeweyher, S. Ehlert, S. Grimme, ChemRxiv, 2019, preprint.
     DOI: 10.26434/chemrxiv.8326202.v1
   for GFN-FF:
   * S. Spicher and S. Grimme, Angew. Chem. Int. Ed., 2020, 59, 15665-15673.
     DOI: 10.1002/anie.202004239
   
   for ALPB and GBSA implicit solvation:
   * S. Ehlert, M. Stahn, S. Spicher, S. Grimme, J. Chem. Theory Comput.,
     2021, 17, 4250-4261. DOI: 10.1021/acs.jctc.1c00471
   
   for ddCOSMO and CPCM-X implicit solvation:
   * M. Stahn, S. Ehlert, S. Grimme, J. Phys. Chem. A,
     2023, XX, XXXX-XXXX. DOI: 10.1021/acs.jpca.3c04382
   
   for DFT-D4:
   * E. Caldeweyher, C. Bannwarth and S. Grimme, J. Chem. Phys., 2017,
     147, 034112. DOI: 10.1063/1.4993215
   * E. Caldeweyher, S. Ehlert, A. Hansen, H. Neugebauer, S. Spicher,
     C. Bannwarth and S. Grimme, J. Chem. Phys., 2019, 150, 154122.
     DOI: 10.1063/1.5090222
   * E. Caldeweyher, J.-M. Mewes, S. Ehlert and S. Grimme, Phys. Chem. Chem. Phys.
     2020, 22, 8499-8512. DOI: 10.1039/D0CP00502A
   
   for sTDA-xTB:
   * S. Grimme and C. Bannwarth, J. Chem. Phys., 2016, 145, 054103.
     DOI: 10.1063/1.4959605
   
   in the mass-spec context:
   * V. Asgeirsson, C. Bauer and S. Grimme, Chem. Sci., 2017, 8, 4879.
     DOI: 10.1039/c7sc00601b
   * J. Koopman and S. Grimme, ACS Omega 2019, 4, 12, 15120-15133.
     DOI: 10.1021/acsomega.9b02011
   
   for metadynamics refer to:
   * S. Grimme, J. Chem. Theory Comput., 2019, 155, 2847-2862
     DOI: 10.1021/acs.jctc.9b00143
   
   for SPH calculations refer to:
   * S. Spicher and S. Grimme, J. Chem. Theory Comput., 2021, 17, 1701-1714
     DOI: 10.1021/acs.jctc.0c01306
   
   for ONIOM refer to:
   * C. Plett, A. Katbashev, S. Ehlert, S. Grimme, M. Bursch,
     Phys. Chem. Chem. Phys., 2023, 25, 17860-17868. DOI: 10.1039/D3CP02178E
   
   for DIPRO refer to:
   * J. Kohn, N. Gildemeister, S. Grimme, D. Fazzi, A. Hansen,
     J. Chem. Phys. 159, 144106 (2023). DOI: 10.1063/5.0167484
   
   for PTB refer to:
   * S. Grimme, M. Mueller, A. Hansen, J. Chem. Phys., 2023, 158, 124111.
     DOI: 10.1063/5.0137838
   
   with help from (in alphabetical order)
   P. Atkinson, C. Bannwarth, F. Bohle, G. Brandenburg, E. Caldeweyher,
   M. Checinski, S. Dohm, S. Ehlert, S. Ehrlich, M. Friede, T. Froitzheim,
   I. Gerasimov, C. Hölzer, A. Katbashev, J. Kohn, J. Koopman, C. Lavigne,
   S. Lehtola, F. März, M. Müller, F. Musil, H. Neugebauer, J. Pisarek,
   C. Plett, P. Pracht, F. Pultar, J. Seibert, P. Shushkov, S. Spicher,
   M. Stahn, M. Steiner, T. Strunk, J. Stückrath, T. Rose, and J. Unsleber
   
 * started run on 2026/05/23 at 12:52:05.235     
   ID    Z sym.   atoms
    1    7 N      1, 5, 10, 17, 27, 34, 39, 43, 54, 56, 57
    2    6 C      2, 3, 6-8, 11-14, 16, 18, 21-23, 28-31, 33, 35-38, 40,
                  44-48, 50-53, 55, 58
    3    8 O      4, 9, 15, 19, 20, 24-26, 32, 41, 49
    4   16 S      42
    5    1 H      59-117

           -------------------------------------------------
          |                Calculation Setup                |
           -------------------------------------------------

          program call               : /home/xchen/software/xtb-6.7.1-gxtb/bin/xtb /home/xchen/Test/benchmark/md_sampled/04_7_0231_n2/snap_0111.xyz --charge -2 --gxtb --norestart
          coordinate file            : /home/xchen/Test/benchmark/md_sampled/04_7_0231_n2/snap_0111.xyz
          omp threads                :                    48

core increment energy         -2.9312527735450E+03 Eh
dispersion energy              2.2780850734588E-02 Eh
molecular charge              -2.0000000000000E+00 e
number of electrons            3.2799999999710E+02 e
number of unpaired electrons   0.0000000000000E+00 e
wavefunction                   restricted
integral cutoff                2.6907767250513E+01 bohr
energy convergence             1.0000000000000E-06 Eh
density convergence            2.0000000000000E-05 e

------------------------------------------------------------
  cycle        total energy    energy error   density error
------------------------------------------------------------
      1     -3195.844568846  -2.6461458E+02   0.0000000E+00
      2     -3196.343075017  -4.9850617E-01   2.0135443E-02
      3     -3196.661450778  -3.1837576E-01   1.5843935E-02
      4     -3197.333513814  -6.7206304E-01   1.2522204E-02
      5     -3197.344059397  -1.0545583E-02   8.8294201E-04
      6     -3197.344912473  -8.5307633E-04   1.7803676E-04
      7     -3197.344990937  -7.8463441E-05   5.5114648E-05
      8     -3197.344996628  -5.6913117E-06   1.6729198E-05
      9     -3197.344997327  -6.9857924E-07   2.5987467E-06
------------------------------------------------------------

electronic energy             -2.6611500463255E+02 Eh
total energy                  -3.1973449973268E+03 Eh

Post processing:
 | Mayer-Wiberg bond orders
 | Molecular Multipole Moments

 total:                                  14.774 sec
 - increment                              0.000 sec (  0%)
 - repulsion                              0.052 sec (  0%)
 - dispersion                             0.699 sec (  4%)
 - coulomb                                0.218 sec (  1%)
 - exchange                               0.019 sec (  0%)
 - hamiltonian                            0.456 sec (  3%)
 - acp                                    0.380 sec (  2%)
 - spin polarization                      0.000 sec (  0%)
 - post processing                        0.317 sec (  2%)
 - scc                                   11.493 sec ( 77%)
 - coulomb gradient                       0.082 sec (  0%)
 - dispersion gradient                    0.042 sec (  0%)
 - exchange gradient                      0.249 sec (  1%)
 - repulsion gradient                     0.007 sec (  0%)
 - acp gradient                           0.484 sec (  3%)
 - hamiltonian gradient                   0.585 sec (  3%)
 - gradient                               1.448 sec (  9%)

         :::::::::::::::::::::::::::::::::::::::::::::::::::::
         ::                     SUMMARY                     ::
         :::::::::::::::::::::::::::::::::::::::::::::::::::::
         :: total energy           -3197.344997326819 Eh    ::
         :: gradient norm              0.443309287118 Eh/a0 ::
         :: HOMO-LUMO gap              6.712195741656 eV    ::
         ::.................................................::
         :: add. restraining           0.000000000000 Eh    ::
         :: total charge              -2.000000000000 e     ::
         :::::::::::::::::::::::::::::::::::::::::::::::::::::

           -------------------------------------------------
          |                Property Printout                |
           -------------------------------------------------

    * Orbital Energies and Occupations
------------------------------------------------------------------
      #    Occupation            Energy/Eh            Energy/eV
------------------------------------------------------------------
      1        2.0000           -1.1939558             -32.4892
    ...           ...                  ...                  ...
    152        2.0000           -0.2088418              -5.6829
    153        2.0000           -0.2050925              -5.5809
    154        2.0000           -0.2032918              -5.5319
    155        2.0000           -0.1995610              -5.4303
    156        2.0000           -0.1921425              -5.2285
    157        2.0000           -0.1853382              -5.0433
    158        2.0000           -0.1807507              -4.9185
    159        2.0000           -0.1768600              -4.8126
    160        2.0000           -0.1650220              -4.4905
    161        2.0000           -0.1632181              -4.4414
    162        2.0000           -0.1393356              -3.7915
    163        2.0000           -0.1240897              -3.3767
    164        2.0000           -0.1100157              -2.9937 (HOMO)
    165                          0.1366529               3.7185 (LUMO)
    166                          0.1485559               4.0424
    167                          0.1524658               4.1488
    168                          0.1678503               4.5674
    169                          0.1685905               4.5876
    170                          0.1748062               4.7567
    171                          0.1810523               4.9267
    172                          0.1884281               5.1274
    173                          0.2027936               5.5183
    174                          0.2110585               5.7432
    175                          0.2216586               6.0316
    ...                                ...                  ...
    296                          0.9590560              26.0972
------------------------------------------------------------------
               HL-Gap            0.2466686 Eh            6.7122 eV
------------------------------------------------------------------

Atomic charges and shell populations (in atomic units):
-----------------------------------------------------------------
     #    Z                q          p(s)       p(p)       p(d)
-----------------------------------------------------------------
     1    7 N      -0.350397      1.360851   3.989546
     2    6 C       0.017460      1.130852   2.851687
     3    6 C       0.448717      1.083686   2.467597
     4    8 O      -0.564231      1.852162   4.712069
     5    7 N      -0.315611      1.352495   3.963116
     6    6 C      -0.026207      1.130895   2.895312
     7    6 C       0.428407      1.121963   2.449630
     8    6 C       0.027647      1.129503   2.842850
     9    8 O      -0.551099      1.859219   4.691880
    10    7 N      -0.349857      1.372166   3.977691
    11    6 C      -0.200234      1.141106   3.059127
    12    6 C       0.424371      1.110975   2.464654
    13    6 C      -0.231715      1.161351   3.070364
    14    6 C      -0.003753      1.122557   2.881196
    15    8 O      -0.583889      1.853609   4.730280
    16    6 C       0.509385      1.077658   2.412957
    17    7 N      -0.490459      1.541053   3.949406
    18    6 C      -0.225935      1.175533   3.050402
    19    8 O      -0.705144      1.852848   4.852295
    20    8 O      -0.695614      1.856306   4.839308
    21    6 C       0.360845      1.107268   2.531887
    22    6 C       0.525067      1.098383   2.376550
    23    6 C      -0.027299      1.122694   2.904606
    24    8 O      -0.717454      1.867930   4.849523
    25    8 O      -0.568571      1.857203   4.711368
    26    8 O      -0.504799      1.792004   4.712795
    27    7 N      -0.369044      1.374476   3.994567
    28    6 C      -0.178721      1.144744   3.033978
    29    6 C       0.427046      1.082313   2.490641
    30    6 C      -0.161950      1.155057   3.006893
    31    6 C       0.007337      1.150130   2.842533
    32    8 O      -0.505415      1.844347   4.661068
    33    6 C      -0.204993      1.179219   3.025775
    34    7 N      -0.312129      1.364494   3.947634
    35    6 C      -0.179325      1.143928   3.035397
    36    6 C      -0.068337      1.149979   2.918358
    37    6 C       0.412351      1.088091   2.499558
    38    6 C      -0.125595      1.175898   2.949697
    39    7 N      -0.525743      1.444623   4.081120
    40    6 C      -0.021894      1.153129   2.868765
    41    8 O      -0.588250      1.852919   4.735331
    42   16 S      -0.233425      1.875100   4.283180   0.075146
    43    7 N      -0.368688      1.399616   3.969072
    44    6 C      -0.106652      1.146730   2.959922
    45    6 C      -0.210952      1.179546   3.031406
    46    6 C       0.406036      1.107179   2.486785
    47    6 C      -0.261609      1.169222   3.092387
    48    6 C      -0.178875      1.155532   3.023344
    49    8 O      -0.501293      1.853334   4.647959
    50    6 C      -0.263649      1.174811   3.088839
    51    6 C      -0.195650      1.156530   3.039120
    52    6 C      -0.179595      1.168383   3.011212
    53    6 C      -0.071411      1.140466   2.930945
    54    7 N      -0.437362      1.394766   4.042596
    55    6 C       0.287009      1.094097   2.618893
    56    7 N      -0.537554      1.584461   3.953092
    57    7 N      -0.429503      1.409913   4.019590
    58    6 C      -0.273369      1.177665   3.095704
    59    1 H       0.274249      0.725751
    60    1 H       0.107281      0.892719
    61    1 H       0.295261      0.704739
    62    1 H       0.144044      0.855956
    63    1 H       0.098417      0.901583
    64    1 H       0.272063      0.727937
    65    1 H       0.119769      0.880231
    66    1 H       0.137573      0.862427
    67    1 H       0.097132      0.902868
    68    1 H       0.099080      0.900920
    69    1 H       0.120300      0.879700
    70    1 H       0.398164      0.601836
    71    1 H       0.133374      0.866626
    72    1 H       0.119329      0.880671
    73    1 H       0.138210      0.861790
    74    1 H       0.290843      0.709157
    75    1 H       0.086281      0.913719
    76    1 H       0.101938      0.898062
    77    1 H       0.103935      0.896065
    78    1 H       0.099737      0.900263
    79    1 H       0.118650      0.881350
    80    1 H       0.117594      0.882406
    81    1 H       0.079582      0.920418
    82    1 H       0.282327      0.717673
    83    1 H       0.117218      0.882782
    84    1 H       0.127354      0.872646
    85    1 H       0.056045      0.943955
    86    1 H       0.040822      0.959178
    87    1 H       0.108651      0.891349
    88    1 H       0.105305      0.894695
    89    1 H       0.255887      0.744113
    90    1 H       0.212640      0.787360
    91    1 H       0.138914      0.861086
    92    1 H       0.255350      0.744650
    93    1 H       0.119204      0.880796
    94    1 H       0.100258      0.899742
    95    1 H       0.126124      0.873876
    96    1 H       0.107182      0.892818
    97    1 H       0.086037      0.913963
    98    1 H       0.090659      0.909341
    99    1 H       0.101790      0.898210
   100    1 H       0.085628      0.914372
   101    1 H       0.113103      0.886897
   102    1 H       0.071336      0.928664
   103    1 H       0.095370      0.904630
   104    1 H       0.080657      0.919343
   105    1 H       0.112365      0.887635
   106    1 H       0.110138      0.889862
   107    1 H       0.100482      0.899518
   108    1 H       0.118858      0.881142
   109    1 H       0.063258      0.936742
   110    1 H       0.087265      0.912735
   111    1 H       0.258690      0.741310
   112    1 H       0.236232      0.763768
   113    1 H       0.242105      0.757895
   114    1 H       0.238775      0.761225
   115    1 H       0.144195      0.855805
   116    1 H       0.068417      0.931583
   117    1 H       0.110126      0.889874
-----------------------------------------------------------------


Wiberg/Mayer (AO) data.
largest (>0.10) Wiberg bond orders for each atom

 ---------------------------------------------------------------------------
     #   Z sym  total        # sym  WBO       # sym  WBO       # sym  WBO
 ---------------------------------------------------------------------------
     1   7 N    3.287 --     7 C    1.181     2 C    0.972    59 N    0.894
                             9 C    0.148
     2   6 C    3.946 --    51 C    0.979     1 N    0.972    60 N    0.939
                             3 C    0.935
     3   6 C    3.873 --     4 C    1.628     5 N    1.240     2 C    0.935
     4   8 C    1.929 --     3 C    1.628     5 N    0.167
     5   7 N    3.353 --     3 C    1.240     6 C    0.982    61 N    0.879
                             4 C    0.167
     6   6 C    3.938 --    58 C    0.991     5 N    0.982    62 N    0.925
                            46 C    0.915
     7   6 C    3.840 --     9 C    1.648     1 N    1.181     8 C    0.934
     8   6 C    3.929 --    11 C    0.998    63 N    0.940    10 N    0.936
                             7 C    0.934
     9   8 C    1.933 --     7 C    1.648     1 N    0.148
    10   7 N    3.300 --    12 C    1.203     8 C    0.936    64 N    0.890
                            15 C    0.157
    11   6 C    3.944 --    13 C    1.009     8 C    0.998    65 N    0.937
                            66 N    0.923
    12   6 C    3.854 --    15 C    1.631    10 N    1.203    14 C    0.937
    13   6 C    3.959 --    11 C    1.009    67 N    0.960    68 N    0.954
                            16 C    0.909
    14   6 C    3.956 --    17 N    1.000    18 C    0.970    12 C    0.937
                            69 N    0.926
    15   8 C    1.899 --    12 C    1.631    10 N    0.157
    16   6 C    3.863 --    20 C    1.488    19 C    1.445    13 C    0.909
    17   7 N    3.001 --    21 C    1.504    14 C    1.000    24 C    0.171
                            70 N    0.168
    18   6 C    3.954 --    14 C    0.970    72 N    0.961    71 N    0.952
                            22 C    0.915
    19   8 C    1.764 --    16 C    1.445    20 C    0.190
    20   8 C    1.753 --    16 C    1.488    19 C    0.190
    21   6 C    3.907 --    17 N    1.504    24 C    1.383    23 C    0.943
    22   6 C    3.812 --    25 C    1.657    26 C    1.206    18 C    0.915
    23   6 C    3.926 --    27 N    0.963    28 C    0.961    21 C    0.943
                            73 N    0.942
    24   8 C    1.709 --    21 C    1.383    17 N    0.171
    25   8 C    1.912 --    22 C    1.657    26 C    0.155
    26   8 C    2.122 --    22 C    1.206    70 N    0.647    25 C    0.155
    27   7 N    3.308 --    29 C    1.213    23 C    0.963    74 N    0.856
                            32 C    0.173
    28   6 C    3.967 --    30 C    1.031    23 C    0.961    75 N    0.955
                            76 N    0.948
    29   6 C    3.881 --    32 C    1.708    27 N    1.213    31 C    0.902
    30   6 C    3.955 --    28 C    1.031    33 C    0.979    78 N    0.949
                            77 N    0.947
    31   6 C    3.913 --    35 C    0.991    79 N    0.931    34 N    0.930
                            29 C    0.902
    32   8 C    2.011 --    29 C    1.708    27 N    0.173
    33   6 C    3.957 --    36 C    0.997    30 C    0.979    81 N    0.969
                            80 N    0.959
    34   7 N    3.394 --    37 C    1.336    31 C    0.930    82 N    0.862
                            41 C    0.176
    35   6 C    3.956 --    38 C    1.009    31 C    0.991    84 N    0.952
                            83 N    0.945
    36   6 C    3.959 --    39 N    1.039    33 C    0.997    85 N    0.956
                            86 N    0.951
    37   6 C    3.889 --    41 C    1.570    34 N    1.336    40 C    0.915
    38   6 C    3.938 --    35 C    1.009    42 O    0.979    88 N    0.955
                            87 N    0.954
    39   7 N    2.943 --    36 C    1.039    90 N    0.939    89 N    0.892
    40   6 C    3.920 --    44 C    0.958    43 N    0.951    91 N    0.941
                            37 C    0.915
    41   8 C    1.876 --    37 C    1.570    34 N    0.176
    42  16 O    2.083 --    45 C    1.002    38 C    0.979
    43   7 N    3.267 --    46 C    1.166    40 C    0.951    92 N    0.888
                            49 C    0.151
    44   6 C    3.966 --    47 C    1.007    48 C    1.000    40 C    0.958
                            93 N    0.941
    45   6 C    3.926 --    42 O    1.002    94 N    0.967    96 N    0.966
                            95 N    0.962
    46   6 C    3.863 --    49 C    1.715    43 N    1.166     6 C    0.915
    47   6 C    3.960 --    44 C    1.007    97 N    0.977    99 N    0.966
                            98 N    0.964
    48   6 C    3.963 --    50 C    1.015    44 C    1.000   100 N    0.958
                           101 N    0.951
    49   8 C    1.987 --    46 C    1.715    43 N    0.151
    50   6 C    3.960 --    48 C    1.015   104 N    0.975   103 N    0.972
                           102 N    0.967
    51   6 C    3.961 --    52 C    1.001     2 C    0.979   105 N    0.958
                           106 N    0.956
    52   6 C    3.949 --    51 C    1.001    53 C    0.984   108 N    0.958
                           107 N    0.955
    53   6 C    3.936 --    54 N    1.008    52 C    0.984   110 N    0.953
                           109 N    0.947
    54   7 N    3.081 --    55 C    1.010    53 C    1.008   111 N    0.885
    55   6 C    3.940 --    56 N    1.752    57 N    1.138    54 N    1.010
    56   7 N    2.904 --    55 C    1.752   112 N    0.901    57 N    0.119
    57   7 N    3.143 --    55 C    1.138   114 N    0.917   113 N    0.912
                            56 N    0.119
    58   6 C    3.944 --     6 C    0.991   116 N    0.974   117 N    0.964
                           115 N    0.954
    59   1 N    0.925 --     1 N    0.894
    60   1 N    0.988 --     2 C    0.939
    61   1 N    0.913 --     5 N    0.879
    62   1 N    0.979 --     6 C    0.925
    63   1 N    0.990 --     8 C    0.940
    64   1 N    0.926 --    10 N    0.890
    65   1 N    0.986 --    11 C    0.937
    66   1 N    0.981 --    11 C    0.923
    67   1 N    0.991 --    13 C    0.960
    68   1 N    0.990 --    13 C    0.954
    69   1 N    0.986 --    14 C    0.926
    70   1 N    0.841 --    26 C    0.647    17 N    0.168
    71   1 N    0.982 --    18 C    0.952
    72   1 N    0.986 --    18 C    0.961
    73   1 N    0.981 --    23 C    0.942
    74   1 N    0.915 --    27 N    0.856
    75   1 N    0.993 --    28 C    0.955
    76   1 N    0.990 --    28 C    0.948
    77   1 N    0.989 --    30 C    0.947
    78   1 N    0.990 --    30 C    0.949
    79   1 N    0.986 --    31 C    0.931
    80   1 N    0.986 --    33 C    0.959
    81   1 N    0.994 --    33 C    0.969
    82   1 N    0.920 --    34 N    0.862
    83   1 N    0.986 --    35 C    0.945
    84   1 N    0.984 --    35 C    0.952
    85   1 N    0.997 --    36 C    0.956
    86   1 N    0.998 --    36 C    0.951
    87   1 N    0.988 --    38 C    0.954
    88   1 N    0.989 --    38 C    0.955
    89   1 N    0.935 --    39 N    0.892
    90   1 N    0.955 --    39 N    0.939
    91   1 N    0.981 --    40 C    0.941
    92   1 N    0.935 --    43 N    0.888
    93   1 N    0.986 --    44 C    0.941
    94   1 N    0.990 --    45 C    0.967
    95   1 N    0.984 --    45 C    0.962
    96   1 N    0.989 --    45 C    0.966
    97   1 N    0.993 --    47 C    0.977
    98   1 N    0.992 --    47 C    0.964
    99   1 N    0.990 --    47 C    0.966
   100   1 N    0.993 --    48 C    0.958
   101   1 N    0.987 --    48 C    0.951
   102   1 N    0.995 --    50 C    0.967
   103   1 N    0.991 --    50 C    0.972
   104   1 N    0.993 --    50 C    0.975
   105   1 N    0.987 --    51 C    0.958
   106   1 N    0.988 --    51 C    0.956
   107   1 N    0.990 --    52 C    0.955
   108   1 N    0.986 --    52 C    0.958
   109   1 N    0.996 --    53 C    0.947
   110   1 N    0.992 --    53 C    0.953
   111   1 N    0.933 --    54 N    0.885
   112   1 N    0.944 --    56 N    0.901
   113   1 N    0.941 --    57 N    0.912
   114   1 N    0.943 --    57 N    0.917
   115   1 N    0.979 --    58 C    0.954
   116   1 N    0.995 --    58 C    0.974
   117   1 N    0.988 --    58 C    0.964
 ---------------------------------------------------------------------------

Topologies differ in total number of bonds
Writing topology from bond orders to xtbtopo.mol

Atomic dipole moments (in atomic units):
---------------------------------------------------------
     #    Z                 x            y            z
---------------------------------------------------------
           total     1.879441    12.248003     2.256517
---------------------------------------------------------
         |total|    12.595148    32.013673 Debye


           -------------------------------------------------
          | TOTAL ENERGY            -3197.344997326819 Eh   |
          | GRADIENT NORM               0.443309287118 Eh/α |
           -------------------------------------------------

------------------------------------------------------------------------
 * finished run on 2026/05/23 at 12:52:21.190     
------------------------------------------------------------------------
 total:
 * wall-time:     0 d,  0 h,  0 min, 15.953 sec
 *  cpu-time:     0 d,  0 h,  0 min, 38.778 sec
 * ratio c/w:     2.431 speedup
 SCF:
 * wall-time:     0 d,  0 h,  0 min, 15.569 sec
 *  cpu-time:     0 d,  0 h,  0 min, 38.313 sec
 * ratio c/w:     2.461 speedup

normal termination of xtb
