      -----------------------------------------------------------      
     |                   =====================                   |     
     |                           x T B                           |     
     |                   =====================                   |     
     |                         S. Grimme                         |     
     |          Mulliken Center for Theoretical Chemistry        |     
     |                    University of Bonn                     |     
      -----------------------------------------------------------      

   * xtb version 6.7.1 (edcfbbe) compiled by 'albert@albert-system' on 2024-07-22

   xtb is free software: you can redistribute it and/or modify it under
   the terms of the GNU Lesser General Public License as published by
   the Free Software Foundation, either version 3 of the License, or
   (at your option) any later version.
   
   xtb is distributed in the hope that it will be useful,
   but WITHOUT ANY WARRANTY; without even the implied warranty of
   MERCHANTABILITY or FITNESS FOR A PARTICULAR PURPOSE.  See the
   GNU Lesser General Public License for more details.
   
   Cite this work as:
   * C. Bannwarth, E. Caldeweyher, S. Ehlert, A. Hansen, P. Pracht,
     J. Seibert, S. Spicher, S. Grimme, WIREs Comput. Mol. Sci., 2020, 11,
     e01493. DOI: 10.1002/wcms.1493
   
   for GFN2-xTB:
   * C. Bannwarth, S. Ehlert and S. Grimme., J. Chem. Theory Comput., 2019,
     15, 1652-1671. DOI: 10.1021/acs.jctc.8b01176
   for GFN1-xTB:
   * S. Grimme, C. Bannwarth, P. Shushkov, J. Chem. Theory Comput., 2017,
     13, 1989-2009. DOI: 10.1021/acs.jctc.7b00118
   for GFN0-xTB:
   * P. Pracht, E. Caldeweyher, S. Ehlert, S. Grimme, ChemRxiv, 2019, preprint.
     DOI: 10.26434/chemrxiv.8326202.v1
   for GFN-FF:
   * S. Spicher and S. Grimme, Angew. Chem. Int. Ed., 2020, 59, 15665-15673.
     DOI: 10.1002/anie.202004239
   
   for ALPB and GBSA implicit solvation:
   * S. Ehlert, M. Stahn, S. Spicher, S. Grimme, J. Chem. Theory Comput.,
     2021, 17, 4250-4261. DOI: 10.1021/acs.jctc.1c00471
   
   for ddCOSMO and CPCM-X implicit solvation:
   * M. Stahn, S. Ehlert, S. Grimme, J. Phys. Chem. A,
     2023, XX, XXXX-XXXX. DOI: 10.1021/acs.jpca.3c04382
   
   for DFT-D4:
   * E. Caldeweyher, C. Bannwarth and S. Grimme, J. Chem. Phys., 2017,
     147, 034112. DOI: 10.1063/1.4993215
   * E. Caldeweyher, S. Ehlert, A. Hansen, H. Neugebauer, S. Spicher,
     C. Bannwarth and S. Grimme, J. Chem. Phys., 2019, 150, 154122.
     DOI: 10.1063/1.5090222
   * E. Caldeweyher, J.-M. Mewes, S. Ehlert and S. Grimme, Phys. Chem. Chem. Phys.
     2020, 22, 8499-8512. DOI: 10.1039/D0CP00502A
   
   for sTDA-xTB:
   * S. Grimme and C. Bannwarth, J. Chem. Phys., 2016, 145, 054103.
     DOI: 10.1063/1.4959605
   
   in the mass-spec context:
   * V. Asgeirsson, C. Bauer and S. Grimme, Chem. Sci., 2017, 8, 4879.
     DOI: 10.1039/c7sc00601b
   * J. Koopman and S. Grimme, ACS Omega 2019, 4, 12, 15120-15133.
     DOI: 10.1021/acsomega.9b02011
   
   for metadynamics refer to:
   * S. Grimme, J. Chem. Theory Comput., 2019, 155, 2847-2862
     DOI: 10.1021/acs.jctc.9b00143
   
   for SPH calculations refer to:
   * S. Spicher and S. Grimme, J. Chem. Theory Comput., 2021, 17, 1701-1714
     DOI: 10.1021/acs.jctc.0c01306
   
   for ONIOM refer to:
   * C. Plett, A. Katbashev, S. Ehlert, S. Grimme, M. Bursch,
     Phys. Chem. Chem. Phys., 2023, 25, 17860-17868. DOI: 10.1039/D3CP02178E
   
   for DIPRO refer to:
   * J. Kohn, N. Gildemeister, S. Grimme, D. Fazzi, A. Hansen,
     J. Chem. Phys., 2023, just accepted.
   
   for PTB refer to:
   * S. Grimme, M. Mueller, A. Hansen, J. Chem. Phys., 2023, 158, 124111.
     DOI: 10.1063/5.0137838
   
   with help from (in alphabetical order)
   P. Atkinson, C. Bannwarth, F. Bohle, G. Brandenburg, E. Caldeweyher
   M. Checinski, S. Dohm, S. Ehlert, S. Ehrlich, I. Gerasimov, C. Hölzer
   A. Katbashev, J. Kohn, J. Koopman, C. Lavigne, S. Lehtola, F. März, M. Müller,
   F. Musil, H. Neugebauer, J. Pisarek, C. Plett, P. Pracht, F. Pultar,
   J. Seibert, P. Shushkov, S. Spicher, M. Stahn, M. Steiner, T. Strunk,
   J. Stückrath, T. Rose, and J. Unsleber
   
 * started run on 2026/05/23 at 08:12:48.229     
   ID    Z sym.   atoms
    1    7 N      1, 5, 10, 17, 23, 28, 35
    2    6 C      2, 3, 6-8, 11-14, 16, 20, 21, 24-26, 29, 31-34, 36-40
    3    8 O      4, 9, 15, 18, 19, 22, 27, 30
    4    1 H      41-70

           -------------------------------------------------
          |                Calculation Setup                |
           -------------------------------------------------

          program call               : /home/xchen/software/xtb-6.7.1/xtb-dist/bin/xtb /home/xchen/Test/benchmark/md_sampled/01_6_0109_n1/snap_0008.xyz --charge -1 --gfn 2 --norestart
          coordinate file            : /home/xchen/Test/benchmark/md_sampled/01_6_0109_n1/snap_0008.xyz
          omp threads                :                    48


           -------------------------------------------------
          |                 G F N 2 - x T B                 |
           -------------------------------------------------

        Reference                      10.1021/acs.jctc.8b01176
      * Hamiltonian:
        H0-scaling (s, p, d)           1.850000    2.230000    2.230000
        zeta-weighting                 0.500000
      * Dispersion:
        s8                             2.700000
        a1                             0.520000
        a2                             5.000000
        s9                             5.000000
      * Repulsion:
        kExp                           1.500000    1.000000
        rExp                           1.000000
      * Coulomb:
        alpha                          2.000000
        third order                    shell-resolved
        anisotropic                    true
        a3                             3.000000
        a5                             4.000000
        cn-shift                       1.200000
        cn-exp                         4.000000
        max-rad                        5.000000


          ...................................................
          :                      SETUP                      :
          :.................................................:
          :  # basis functions                 190          :
          :  # atomic orbitals                 190          :
          :  # shells                          110          :
          :  # electrons                       214          :
          :  max. iterations                   250          :
          :  Hamiltonian                  GFN2-xTB          :
          :  restarted?                      false          :
          :  GBSA solvation                  false          :
          :  PC potential                    false          :
          :  electronic temp.          300.0000000     K    :
          :  accuracy                    1.0000000          :
          :  -> integral cutoff          0.2500000E+02      :
          :  -> integral neglect         0.1000000E-07      :
          :  -> SCF convergence          0.1000000E-05 Eh   :
          :  -> wf. convergence          0.1000000E-03 e    :
          :  Broyden damping             0.4000000          :
          :  net charge                         -1          :
          :  unpaired electrons                  0          :
          ...................................................

 iter      E             dE          RMSdq      gap      omega  full diag
   1   -123.0121795 -0.123012E+03  0.461E+00    3.02       0.0  T
   2   -123.4506114 -0.438432E+00  0.250E+00    1.63       1.0  T
   3   -123.4739667 -0.233553E-01  0.144E+00    0.35       1.0  T
   4   -122.2840004  0.118997E+01  0.269E+00    0.10       1.0  T
   5   -123.4703385 -0.118634E+01  0.499E-01    0.64       1.0  T
   6   -123.3818916  0.884469E-01  0.770E-01    0.03       1.0  T
   7   -123.4847272 -0.102836E+00  0.167E-01    0.27       1.0  T
   8   -123.4848268 -0.996145E-04  0.148E-01    0.44       1.0  T
   9   -123.4849304 -0.103618E-03  0.139E-01    0.47       1.0  T
  10   -123.4850581 -0.127672E-03  0.130E-01    0.45       1.0  T
  11   -123.4852944 -0.236282E-03  0.117E-01    0.35       1.0  T
  12   -123.4857558 -0.461405E-03  0.989E-02    0.27       1.0  T
  13   -123.4870674 -0.131157E-02  0.382E-02    0.19       1.0  T
  14   -123.4870997 -0.323211E-04  0.339E-02    0.18       1.0  T
  15   -123.4871408 -0.411111E-04  0.297E-02    0.15       1.0  T
  16   -123.4871484 -0.757773E-05  0.290E-02    0.18       1.0  T
  17   -123.4872902 -0.141855E-03  0.573E-03    0.16       2.1  T
  18   -123.4872923 -0.207890E-05  0.454E-03    0.17       2.6  T
  19   -123.4872958 -0.346609E-05  0.106E-03    0.16      11.3  T
  20   -123.4872959 -0.106734E-06  0.697E-04    0.16      17.2  T
  21   -123.4872960 -0.851192E-07  0.468E-05    0.16     255.4  T

   *** convergence criteria satisfied after 21 iterations ***

         #    Occupation            Energy/Eh            Energy/eV
      -------------------------------------------------------------
         1        2.0000           -0.6469186             -17.6036
       ...           ...                  ...                  ...
       101        2.0000           -0.3075693              -8.3694
       102        2.0000           -0.3057205              -8.3191
       103        2.0000           -0.3026806              -8.2364
       104        2.0000           -0.2979926              -8.1088
       105        2.0000           -0.2243745              -6.1055
       106        2.0000           -0.2117918              -5.7631
       107        1.9191           -0.1874190              -5.0999 (HOMO)
       108        0.0802           -0.1813947              -4.9360 (LUMO)
       109        0.0007           -0.1768826              -4.8132
       110                         -0.1673017              -4.5525
       111                         -0.1574551              -4.2846
       112                         -0.1550157              -4.2182
       ...                                ...                  ...
       190                          0.9336473              25.4058
      -------------------------------------------------------------
                  HL-Gap            0.0060243 Eh            0.1639 eV
             Fermi-level           -0.1844113 Eh           -5.0181 eV

 SCC (total)                   0 d,  0 h,  0 min,  6.844 sec
 SCC setup                      ...        0 min,  0.011 sec (  0.163%)
 Dispersion                     ...        0 min,  0.025 sec (  0.359%)
 classical contributions        ...        0 min,  0.002 sec (  0.032%)
 integral evaluation            ...        0 min,  0.081 sec (  1.180%)
 iterations                     ...        0 min,  6.549 sec ( 95.694%)
 molecular gradient             ...        0 min,  0.170 sec (  2.481%)
 printout                       ...        0 min,  0.006 sec (  0.091%)

         :::::::::::::::::::::::::::::::::::::::::::::::::::::
         ::                     SUMMARY                     ::
         :::::::::::::::::::::::::::::::::::::::::::::::::::::
         :: total energy            -122.017412863219 Eh    ::
         :: gradient norm              0.363755455897 Eh/a0 ::
         :: HOMO-LUMO gap              0.163930003764 eV    ::
         ::.................................................::
         :: SCC energy              -123.485853091891 Eh    ::
         :: -> isotropic ES            0.421839789641 Eh    ::
         :: -> anisotropic ES          0.014870213407 Eh    ::
         :: -> anisotropic XC          0.028875764170 Eh    ::
         :: -> dispersion             -0.080238811828 Eh    ::
         :: repulsion energy           1.468440228672 Eh    ::
         :: add. restraining           0.000000000000 Eh    ::
         :: total charge              -1.000000000002 e     ::
         :::::::::::::::::::::::::::::::::::::::::::::::::::::

           -------------------------------------------------
          |                Property Printout                |
           -------------------------------------------------

    * Orbital Energies and Occupations

         #    Occupation            Energy/Eh            Energy/eV
      -------------------------------------------------------------
         1        2.0000           -0.6469186             -17.6036
       ...           ...                  ...                  ...
        95        2.0000           -0.3288670              -8.9489
        96        2.0000           -0.3278002              -8.9199
        97        2.0000           -0.3245253              -8.8308
        98        2.0000           -0.3239256              -8.8145
        99        2.0000           -0.3215643              -8.7502
       100        2.0000           -0.3176383              -8.6434
       101        2.0000           -0.3075693              -8.3694
       102        2.0000           -0.3057205              -8.3191
       103        2.0000           -0.3026806              -8.2364
       104        2.0000           -0.2979926              -8.1088
       105        2.0000           -0.2243745              -6.1055
       106        2.0000           -0.2117918              -5.7631
       107        1.9191           -0.1874190              -5.0999 (HOMO)
       108        0.0802           -0.1813947              -4.9360 (LUMO)
       109        0.0007           -0.1768826              -4.8132
       110                         -0.1673017              -4.5525
       111                         -0.1574551              -4.2846
       112                         -0.1550157              -4.2182
       113                         -0.1504121              -4.0929
       114                         -0.1493568              -4.0642
       115                         -0.1318136              -3.5868
       116                         -0.1211013              -3.2953
       117                         -0.0229662              -0.6249
       118                         -0.0007402              -0.0201
       ...                                ...                  ...
       190                          0.9336473              25.4058
      -------------------------------------------------------------
                  HL-Gap            0.0060243 Eh            0.1639 eV
             Fermi-level           -0.1844113 Eh           -5.0181 eV

     #   Z          covCN         q      C6AA      α(0)
     1   7 N        2.675    -0.187    25.061     7.435
     2   6 C        3.711    -0.008    20.855     6.526
     3   6 C        2.740     0.278    22.294     7.731
     4   8 O        0.861    -0.414    21.969     6.284
     5   7 N        2.682    -0.181    24.915     7.413
     6   6 C        3.762     0.023    20.233     6.412
     7   6 C        2.797     0.262    22.597     7.787
     8   6 C        3.814     0.044    19.820     6.337
     9   8 O        0.859    -0.434    22.363     6.340
    10   7 N        2.713    -0.153    24.312     7.323
    11   6 C        3.805    -0.050    21.460     6.595
    12   6 C        2.771     0.257    22.668     7.798
    13   6 C        3.804    -0.086    22.134     6.698
    14   6 C        3.779    -0.023    21.000     6.529
    15   8 O        0.860    -0.470    23.119     6.447
    16   6 C        2.684     0.376    20.627     7.432
    17   7 N        2.693    -0.143    24.095     7.290
    18   8 O        0.856    -0.542    24.747     6.670
    19   8 O        0.862    -0.590    25.876     6.820
    20   6 C        2.777     0.271    22.425     7.756
    21   6 C        3.849     0.028    20.071     6.372
    22   8 O        0.859    -0.457    22.859     6.410
    23   7 N        2.688    -0.137    23.966     7.271
    24   6 C        3.750    -0.120    22.864     6.820
    25   6 C        2.796     0.254    22.729     7.810
    26   6 C        3.747    -0.024    21.061     6.546
    27   8 O        0.856    -0.460    22.915     6.418
    28   7 N        2.682    -0.141    24.046     7.283
    29   6 C        2.764     0.265    22.537     7.775
    30   8 O        0.856    -0.455    22.821     6.405
    31   6 C        3.799    -0.070    21.843     6.654
    32   6 C        3.018    -0.030    28.719     8.791
    33   6 C        3.048    -0.011    28.255     8.718
    34   6 C        3.102    -0.015    28.247     8.709
    35   7 N        2.729    -0.158    24.422     7.340
    36   6 C        3.096     0.064    26.458     8.430
    37   6 C        2.918    -0.046    29.147     8.853
    38   6 C        2.929    -0.069    29.710     8.939
    39   6 C        2.904    -0.043    29.072     8.841
    40   6 C        2.917    -0.049    29.228     8.865
    41   1 H        0.857     0.172     1.264     1.761
    42   1 H        0.895     0.084     1.942     2.181
    43   1 H        0.923     0.040     2.454     2.450
    44   1 H        0.860     0.176     1.239     1.744
    45   1 H        0.919     0.065     2.140     2.288
    46   1 H        0.925     0.054     2.272     2.357
    47   1 H        0.861     0.201     1.099     1.642
    48   1 H        0.920     0.047     2.353     2.399
    49   1 H        0.927     0.066     2.129     2.282
    50   1 H        0.928     0.033     2.539     2.491
    51   1 H        0.925    -0.017     3.374     2.872
    52   1 H        0.926     0.080     1.980     2.200
    53   1 H        0.929     0.092     1.863     2.134
    54   1 H        0.860     0.180     1.212     1.724
    55   1 H        0.929     0.052     2.300     2.371
    56   1 H        0.860     0.183     1.198     1.714
    57   1 H        0.912     0.033     2.550     2.498
    58   1 H        0.927     0.062     2.180     2.309
    59   1 H        0.929     0.071     2.073     2.251
    60   1 H        0.914     0.070     2.082     2.257
    61   1 H        0.920     0.079     1.994     2.208
    62   1 H        0.860     0.222     1.001     1.567
    63   1 H        0.927     0.055     2.263     2.352
    64   1 H        0.921     0.063     2.169     2.303
    65   1 H        0.927     0.027     2.628     2.535
    66   1 H        0.861     0.156     1.364     1.829
    67   1 H        0.926     0.023     2.683     2.561
    68   1 H        0.928     0.020     2.732     2.584
    69   1 H        0.926     0.024     2.680     2.560
    70   1 H        0.929     0.033     2.545     2.494

 Mol. C6AA /au·bohr⁶  :      56241.682609
 Mol. C8AA /au·bohr⁸  :    1292337.304601
 Mol. α(0) /au        :        359.794073


Wiberg/Mayer (AO) data.
largest (>0.10) Wiberg bond orders for each atom

 ---------------------------------------------------------------------------
     #   Z sym  total        # sym  WBO       # sym  WBO       # sym  WBO
 ---------------------------------------------------------------------------
     1   7 N    3.355 --     7 C    1.207     2 C    0.984    41 H    0.932
                             9 O    0.164
     2   6 C    3.961 --     1 N    0.984    43 H    0.970    42 H    0.956
                             3 C    0.936
     3   6 C    3.949 --     4 O    1.708     5 N    1.249     2 C    0.936
     4   8 O    2.025 --     3 C    1.708     5 N    0.191
     5   7 N    3.428 --     3 C    1.249     6 C    0.973    44 H    0.941
                             4 O    0.191
     6   6 C    3.953 --     5 N    0.973    45 H    0.967    31 C    0.955
                            29 C    0.912
     7   6 C    3.948 --     9 O    1.683     1 N    1.207     8 C    0.987
     8   6 C    3.955 --     7 C    0.987    11 C    0.958    46 H    0.951
                            10 N    0.950
     9   8 O    1.974 --     7 C    1.683     1 N    0.164
    10   7 N    3.489 --    12 C    1.325     8 C    0.950    47 H    0.921
                            15 O    0.206
    11   6 C    3.974 --    13 C    0.987    48 H    0.971    49 H    0.969
                             8 C    0.958
    12   6 C    3.961 --    15 O    1.609    10 N    1.325    14 C    0.967
    13   6 C    3.927 --    11 C    0.987    50 H    0.981    51 H    0.976
                            16 C    0.861
    14   6 C    3.950 --    17 N    0.970    12 C    0.967    52 H    0.960
                            53 H    0.953
    15   8 O    1.927 --    12 C    1.609    10 N    0.206
    16   6 C    3.942 --    18 O    1.586    19 O    1.481    13 C    0.861
    17   7 N    3.482 --    20 C    1.323    14 C    0.970    54 H    0.932
                            22 O    0.197
    18   8 O    1.896 --    16 C    1.586    19 O    0.238
    19   8 O    1.778 --    16 C    1.481    18 O    0.238
    20   6 C    3.960 --    22 O    1.641    17 N    1.323    21 C    0.918
    21   6 C    3.967 --    24 C    0.991    23 N    0.979    55 H    0.963
                            20 C    0.918
    22   8 O    1.962 --    20 C    1.641    17 N    0.197
    23   7 N    3.473 --    25 C    1.315    21 C    0.979    56 H    0.929
                            27 O    0.187
    24   6 C    3.987 --    21 C    0.991    58 H    0.984    57 H    0.983
                            59 H    0.983
    25   6 C    3.949 --    27 O    1.641    23 N    1.315    26 C    0.923
    26   6 C    3.969 --    28 N    1.015    61 H    0.958    60 H    0.956
                            25 C    0.923
    27   8 O    1.951 --    25 C    1.641    23 N    0.187
    28   7 N    3.476 --    29 C    1.300    26 C    1.015    62 H    0.914
                            30 O    0.193
    29   6 C    3.948 --    30 O    1.660    28 N    1.300     6 C    0.912
    30   8 O    1.976 --    29 C    1.660    28 N    0.193
    31   6 C    3.983 --    32 C    1.029    63 H    0.963    64 H    0.962
                             6 C    0.955
    32   6 C    3.964 --    33 C    1.647    34 C    1.123    31 C    1.029
    33   6 C    3.924 --    32 C    1.647    35 N    1.141    65 H    0.971
    34   6 C    3.969 --    37 C    1.364    36 C    1.284    32 C    1.123
    35   7 N    3.451 --    33 C    1.141    36 C    1.120    66 H    0.952
    36   6 C    3.962 --    38 C    1.400    34 C    1.284    35 N    1.120
    37   6 C    3.950 --    39 C    1.426    34 C    1.364    67 H    0.973
                            38 C    0.113
    38   6 C    3.955 --    36 C    1.400    40 C    1.395    68 H    0.972
                            37 C    0.113
    39   6 C    3.986 --    40 C    1.452    37 C    1.426    69 H    0.973
    40   6 C    3.969 --    39 C    1.452    38 C    1.395    70 H    0.976
    41   1 H    0.970 --     1 N    0.932
    42   1 H    0.992 --     2 C    0.956
    43   1 H    0.998 --     2 C    0.970
    44   1 H    0.968 --     5 N    0.941
    45   1 H    0.995 --     6 C    0.967
    46   1 H    0.997 --     8 C    0.951
    47   1 H    0.959 --    10 N    0.921
    48   1 H    0.998 --    11 C    0.971
    49   1 H    0.995 --    11 C    0.969
    50   1 H    0.999 --    13 C    0.981
    51   1 H    0.998 --    13 C    0.976
    52   1 H    0.993 --    14 C    0.960
    53   1 H    0.991 --    14 C    0.953
    54   1 H    0.967 --    17 N    0.932
    55   1 H    0.997 --    21 C    0.963
    56   1 H    0.966 --    23 N    0.929
    57   1 H    0.998 --    24 C    0.983
    58   1 H    0.996 --    24 C    0.984
    59   1 H    0.995 --    24 C    0.983
    60   1 H    0.995 --    26 C    0.956
    61   1 H    0.994 --    26 C    0.958
    62   1 H    0.951 --    28 N    0.914
    63   1 H    0.997 --    31 C    0.963
    64   1 H    0.995 --    31 C    0.962
    65   1 H    0.998 --    33 C    0.971
    66   1 H    0.975 --    35 N    0.952
    67   1 H    0.999 --    37 C    0.973
    68   1 H    0.999 --    38 C    0.972
    69   1 H    0.999 --    39 C    0.973
    70   1 H    0.999 --    40 C    0.976
 ---------------------------------------------------------------------------

Topologies differ in total number of bonds
Writing topology from bond orders to xtbtopo.mol

molecular dipole:
                 x           y           z       tot (Debye)
 q only:        4.765       9.519       8.782
   full:        4.867       9.575       9.313      36.134
molecular quadrupole (traceless):
                xx          xy          yy          xz          yz          zz
 q only:       46.416     -94.527     -19.961     -84.236    -130.143     -26.455
  q+dip:       35.364    -100.139      -6.810     -88.178    -135.489     -28.553
   full:       37.865    -100.841      -8.259     -89.869    -134.313     -29.606


           -------------------------------------------------
          | TOTAL ENERGY             -122.017412863219 Eh   |
          | GRADIENT NORM               0.363755455897 Eh/α |
          | HOMO-LUMO GAP               0.163930003764 eV   |
           -------------------------------------------------

------------------------------------------------------------------------
 * finished run on 2026/05/23 at 08:12:55.283     
------------------------------------------------------------------------
 total:
 * wall-time:     0 d,  0 h,  0 min,  7.053 sec
 *  cpu-time:     0 d,  0 h,  0 min, 25.991 sec
 * ratio c/w:     3.685 speedup
 SCF:
 * wall-time:     0 d,  0 h,  0 min,  6.845 sec
 *  cpu-time:     0 d,  0 h,  0 min, 25.287 sec
 * ratio c/w:     3.694 speedup

normal termination of xtb
