      -----------------------------------------------------------      
     |                   =====================                   |     
     |                           x T B                           |     
     |                   =====================                   |     
     |                         S. Grimme                         |     
     |          Mulliken Center for Theoretical Chemistry        |     
     |                    University of Bonn                     |     
      -----------------------------------------------------------      

   * xtb version 6.7.1 (edcfbbe) compiled by 'albert@albert-system' on 2024-07-22

   xtb is free software: you can redistribute it and/or modify it under
   the terms of the GNU Lesser General Public License as published by
   the Free Software Foundation, either version 3 of the License, or
   (at your option) any later version.
   
   xtb is distributed in the hope that it will be useful,
   but WITHOUT ANY WARRANTY; without even the implied warranty of
   MERCHANTABILITY or FITNESS FOR A PARTICULAR PURPOSE.  See the
   GNU Lesser General Public License for more details.
   
   Cite this work as:
   * C. Bannwarth, E. Caldeweyher, S. Ehlert, A. Hansen, P. Pracht,
     J. Seibert, S. Spicher, S. Grimme, WIREs Comput. Mol. Sci., 2020, 11,
     e01493. DOI: 10.1002/wcms.1493
   
   for GFN2-xTB:
   * C. Bannwarth, S. Ehlert and S. Grimme., J. Chem. Theory Comput., 2019,
     15, 1652-1671. DOI: 10.1021/acs.jctc.8b01176
   for GFN1-xTB:
   * S. Grimme, C. Bannwarth, P. Shushkov, J. Chem. Theory Comput., 2017,
     13, 1989-2009. DOI: 10.1021/acs.jctc.7b00118
   for GFN0-xTB:
   * P. Pracht, E. Caldeweyher, S. Ehlert, S. Grimme, ChemRxiv, 2019, preprint.
     DOI: 10.26434/chemrxiv.8326202.v1
   for GFN-FF:
   * S. Spicher and S. Grimme, Angew. Chem. Int. Ed., 2020, 59, 15665-15673.
     DOI: 10.1002/anie.202004239
   
   for ALPB and GBSA implicit solvation:
   * S. Ehlert, M. Stahn, S. Spicher, S. Grimme, J. Chem. Theory Comput.,
     2021, 17, 4250-4261. DOI: 10.1021/acs.jctc.1c00471
   
   for ddCOSMO and CPCM-X implicit solvation:
   * M. Stahn, S. Ehlert, S. Grimme, J. Phys. Chem. A,
     2023, XX, XXXX-XXXX. DOI: 10.1021/acs.jpca.3c04382
   
   for DFT-D4:
   * E. Caldeweyher, C. Bannwarth and S. Grimme, J. Chem. Phys., 2017,
     147, 034112. DOI: 10.1063/1.4993215
   * E. Caldeweyher, S. Ehlert, A. Hansen, H. Neugebauer, S. Spicher,
     C. Bannwarth and S. Grimme, J. Chem. Phys., 2019, 150, 154122.
     DOI: 10.1063/1.5090222
   * E. Caldeweyher, J.-M. Mewes, S. Ehlert and S. Grimme, Phys. Chem. Chem. Phys.
     2020, 22, 8499-8512. DOI: 10.1039/D0CP00502A
   
   for sTDA-xTB:
   * S. Grimme and C. Bannwarth, J. Chem. Phys., 2016, 145, 054103.
     DOI: 10.1063/1.4959605
   
   in the mass-spec context:
   * V. Asgeirsson, C. Bauer and S. Grimme, Chem. Sci., 2017, 8, 4879.
     DOI: 10.1039/c7sc00601b
   * J. Koopman and S. Grimme, ACS Omega 2019, 4, 12, 15120-15133.
     DOI: 10.1021/acsomega.9b02011
   
   for metadynamics refer to:
   * S. Grimme, J. Chem. Theory Comput., 2019, 155, 2847-2862
     DOI: 10.1021/acs.jctc.9b00143
   
   for SPH calculations refer to:
   * S. Spicher and S. Grimme, J. Chem. Theory Comput., 2021, 17, 1701-1714
     DOI: 10.1021/acs.jctc.0c01306
   
   for ONIOM refer to:
   * C. Plett, A. Katbashev, S. Ehlert, S. Grimme, M. Bursch,
     Phys. Chem. Chem. Phys., 2023, 25, 17860-17868. DOI: 10.1039/D3CP02178E
   
   for DIPRO refer to:
   * J. Kohn, N. Gildemeister, S. Grimme, D. Fazzi, A. Hansen,
     J. Chem. Phys., 2023, just accepted.
   
   for PTB refer to:
   * S. Grimme, M. Mueller, A. Hansen, J. Chem. Phys., 2023, 158, 124111.
     DOI: 10.1063/5.0137838
   
   with help from (in alphabetical order)
   P. Atkinson, C. Bannwarth, F. Bohle, G. Brandenburg, E. Caldeweyher
   M. Checinski, S. Dohm, S. Ehlert, S. Ehrlich, I. Gerasimov, C. Hölzer
   A. Katbashev, J. Kohn, J. Koopman, C. Lavigne, S. Lehtola, F. März, M. Müller,
   F. Musil, H. Neugebauer, J. Pisarek, C. Plett, P. Pracht, F. Pultar,
   J. Seibert, P. Shushkov, S. Spicher, M. Stahn, M. Steiner, T. Strunk,
   J. Stückrath, T. Rose, and J. Unsleber
   
 * started run on 2026/05/23 at 12:46:35.457     
   ID    Z sym.   atoms
    1    7 N      1, 5, 10, 17, 27, 34, 39, 43, 54, 56, 57
    2    6 C      2, 3, 6-8, 11-14, 16, 18, 21-23, 28-31, 33, 35-38, 40,
                  44-48, 50-53, 55, 58
    3    8 O      4, 9, 15, 19, 20, 24-26, 32, 41, 49
    4   16 S      42
    5    1 H      59-117

           -------------------------------------------------
          |                Calculation Setup                |
           -------------------------------------------------

          program call               : /home/xchen/software/xtb-6.7.1/xtb-dist/bin/xtb /home/xchen/Test/benchmark/md_sampled/04_7_0231_n2/snap_0085.xyz --charge -2 --gfn 2 --norestart
          coordinate file            : /home/xchen/Test/benchmark/md_sampled/04_7_0231_n2/snap_0085.xyz
          omp threads                :                    48


           -------------------------------------------------
          |                 G F N 2 - x T B                 |
           -------------------------------------------------

        Reference                      10.1021/acs.jctc.8b01176
      * Hamiltonian:
        H0-scaling (s, p, d)           1.850000    2.230000    2.230000
        zeta-weighting                 0.500000
      * Dispersion:
        s8                             2.700000
        a1                             0.520000
        a2                             5.000000
        s9                             5.000000
      * Repulsion:
        kExp                           1.500000    1.000000
        rExp                           1.000000
      * Coulomb:
        alpha                          2.000000
        third order                    shell-resolved
        anisotropic                    true
        a3                             3.000000
        a5                             4.000000
        cn-shift                       1.200000
        cn-exp                         4.000000
        max-rad                        5.000000


          ...................................................
          :                      SETUP                      :
          :.................................................:
          :  # basis functions                 297          :
          :  # atomic orbitals                 296          :
          :  # shells                          176          :
          :  # electrons                       328          :
          :  max. iterations                   250          :
          :  Hamiltonian                  GFN2-xTB          :
          :  restarted?                      false          :
          :  GBSA solvation                  false          :
          :  PC potential                    false          :
          :  electronic temp.          300.0000000     K    :
          :  accuracy                    1.0000000          :
          :  -> integral cutoff          0.2500000E+02      :
          :  -> integral neglect         0.1000000E-07      :
          :  -> SCF convergence          0.1000000E-05 Eh   :
          :  -> wf. convergence          0.1000000E-03 e    :
          :  Broyden damping             0.4000000          :
          :  net charge                         -2          :
          :  unpaired electrons                  0          :
          ...................................................

 iter      E             dE          RMSdq      gap      omega  full diag
   1   -187.0194286 -0.187019E+03  0.417E+00    3.70       0.0  T
   2   -187.5367315 -0.517303E+00  0.217E+00    2.45       1.0  T
   3   -187.5626585 -0.259270E-01  0.118E+00    1.39       1.0  T
   4   -187.4146281  0.148030E+00  0.805E-01    0.03       1.0  T
   5   -187.5680169 -0.153389E+00  0.254E-01    1.23       1.0  T
   6   -187.5718568 -0.383986E-02  0.148E-01    1.23       1.0  T
   7   -187.5720330 -0.176285E-03  0.110E-01    1.16       1.0  T
   8   -187.5725155 -0.482499E-03  0.791E-02    1.02       1.0  T
   9   -187.5727347 -0.219148E-03  0.602E-02    0.87       1.0  T
  10   -187.5728969 -0.162202E-03  0.401E-02    0.70       1.0  T
  11   -187.5729968 -0.999450E-04  0.199E-02    0.51       1.0  T
  12   -187.5730298 -0.329612E-04  0.630E-03    0.40       1.5  T
  13   -187.5730342 -0.438675E-05  0.144E-03    0.34       6.4  T
  14   -187.5730343 -0.107200E-06  0.852E-04    0.35      10.9  T
  15   -187.5730344 -0.914059E-07  0.173E-04    0.35      53.6  T

   *** convergence criteria satisfied after 15 iterations ***

         #    Occupation            Energy/Eh            Energy/eV
      -------------------------------------------------------------
         1        2.0000           -0.6044743             -16.4486
       ...           ...                  ...                  ...
       158        2.0000           -0.1886506              -5.1334
       159        2.0000           -0.1760451              -4.7904
       160        2.0000           -0.1750756              -4.7640
       161        2.0000           -0.1633272              -4.4444
       162        2.0000           -0.1602800              -4.3614
       163        2.0000           -0.1479575              -4.0261
       164        1.9978           -0.1311854              -3.5697 (HOMO)
       165        0.0022           -0.1182727              -3.2184 (LUMO)
       166        0.0000           -0.1107194              -3.0128
       167                         -0.1018250              -2.7708
       168                         -0.0877610              -2.3881
       169                         -0.0796635              -2.1678
       ...                                ...                  ...
       296                          0.8461159              23.0240
      -------------------------------------------------------------
                  HL-Gap            0.0129127 Eh            0.3514 eV
             Fermi-level           -0.1247292 Eh           -3.3941 eV

 SCC (total)                   0 d,  0 h,  0 min, 22.745 sec
 SCC setup                      ...        0 min,  0.031 sec (  0.138%)
 Dispersion                     ...        0 min,  0.066 sec (  0.289%)
 classical contributions        ...        0 min,  0.007 sec (  0.032%)
 integral evaluation            ...        0 min,  0.717 sec (  3.154%)
 iterations                     ...        0 min, 20.682 sec ( 90.930%)
 molecular gradient             ...        0 min,  1.219 sec (  5.361%)
 printout                       ...        0 min,  0.022 sec (  0.096%)

         :::::::::::::::::::::::::::::::::::::::::::::::::::::
         ::                     SUMMARY                     ::
         :::::::::::::::::::::::::::::::::::::::::::::::::::::
         :: total energy            -185.557557408297 Eh    ::
         :: gradient norm              0.343483968583 Eh/a0 ::
         :: HOMO-LUMO gap              0.351373605214 eV    ::
         ::.................................................::
         :: SCC energy              -187.567264822667 Eh    ::
         :: -> isotropic ES            0.732922402950 Eh    ::
         :: -> anisotropic ES          0.012295868785 Eh    ::
         :: -> anisotropic XC          0.061427958992 Eh    ::
         :: -> dispersion             -0.137549906274 Eh    ::
         :: repulsion energy           2.009707414370 Eh    ::
         :: add. restraining           0.000000000000 Eh    ::
         :: total charge              -1.999999999985 e     ::
         :::::::::::::::::::::::::::::::::::::::::::::::::::::

           -------------------------------------------------
          |                Property Printout                |
           -------------------------------------------------

    * Orbital Energies and Occupations

         #    Occupation            Energy/Eh            Energy/eV
      -------------------------------------------------------------
         1        2.0000           -0.6044743             -16.4486
       ...           ...                  ...                  ...
       152        2.0000           -0.2490332              -6.7765
       153        2.0000           -0.2449295              -6.6649
       154        2.0000           -0.2396133              -6.5202
       155        2.0000           -0.2378454              -6.4721
       156        2.0000           -0.2337638              -6.3610
       157        2.0000           -0.2205282              -6.0009
       158        2.0000           -0.1886506              -5.1334
       159        2.0000           -0.1760451              -4.7904
       160        2.0000           -0.1750756              -4.7640
       161        2.0000           -0.1633272              -4.4444
       162        2.0000           -0.1602800              -4.3614
       163        2.0000           -0.1479575              -4.0261
       164        1.9978           -0.1311854              -3.5697 (HOMO)
       165        0.0022           -0.1182727              -3.2184 (LUMO)
       166        0.0000           -0.1107194              -3.0128
       167                         -0.1018250              -2.7708
       168                         -0.0877610              -2.3881
       169                         -0.0796635              -2.1678
       170                         -0.0710986              -1.9347
       171                         -0.0704288              -1.9165
       172                         -0.0681308              -1.8539
       173                         -0.0511510              -1.3919
       174                         -0.0129058              -0.3512
       175                          0.0235433               0.6406
       ...                                ...                  ...
       296                          0.8461159              23.0240
      -------------------------------------------------------------
                  HL-Gap            0.0129127 Eh            0.3514 eV
             Fermi-level           -0.1247292 Eh           -3.3941 eV

     #   Z          covCN         q      C6AA      α(0)
     1   7 N        2.698    -0.209    25.555     7.508
     2   6 C        3.777     0.022    20.232     6.408
     3   6 C        2.759     0.301    21.892     7.662
     4   8 O        0.862    -0.429    22.277     6.328
     5   7 N        2.693    -0.183    24.966     7.421
     6   6 C        3.792     0.027    20.129     6.389
     7   6 C        2.800     0.280    22.273     7.731
     8   6 C        3.789     0.040    19.915     6.356
     9   8 O        0.865    -0.445    22.607     6.375
    10   7 N        2.695    -0.182    24.944     7.418
    11   6 C        3.856    -0.061    21.635     6.615
    12   6 C        2.745     0.264    22.549     7.775
    13   6 C        3.779    -0.087    22.184     6.710
    14   6 C        3.776     0.030    20.098     6.387
    15   8 O        0.857    -0.455    22.809     6.403
    16   6 C        2.683     0.356    20.954     7.491
    17   7 N        2.694    -0.205    25.459     7.494
    18   6 C        3.801    -0.097    22.348     6.731
    19   8 O        0.856    -0.598    26.061     6.844
    20   8 O        0.856    -0.598    26.064     6.845
    21   6 C        2.762     0.274    22.363     7.744
    22   6 C        2.682     0.362    20.865     7.475
    23   6 C        3.760     0.012    20.423     6.442
    24   8 O        0.857    -0.471    23.159     6.452
    25   8 O        0.856    -0.578    25.584     6.782
    26   8 O        0.856    -0.582    25.690     6.795
    27   7 N        2.706    -0.189    25.102     7.441
    28   6 C        3.778    -0.058    21.645     6.628
    29   6 C        2.764     0.257    22.673     7.798
    30   6 C        3.788    -0.054    21.551     6.612
    31   6 C        3.791     0.025    20.158     6.394
    32   8 O        0.856    -0.430    22.289     6.330
    33   6 C        3.795    -0.065    21.756     6.642
    34   7 N        2.700    -0.197    25.271     7.466
    35   6 C        3.808    -0.062    21.687     6.629
    36   6 C        3.737     0.028    20.184     6.411
    37   6 C        2.758     0.291    22.064     7.692
    38   6 C        3.783    -0.001    20.624     6.469
    39   7 N        2.619    -0.341    28.783     7.968
    40   6 C        3.808     0.026    20.129     6.387
    41   8 O        0.862    -0.454    22.794     6.401
    42  16 S        1.948    -0.206   149.829    20.602
    43   7 N        2.688    -0.202    25.399     7.485
    44   6 C        3.873    -0.021    20.902     6.501
    45   6 C        3.740    -0.054    21.625     6.635
    46   6 C        2.750     0.262    22.584     7.782
    47   6 C        3.695    -0.091    22.425     6.774
    48   6 C        3.816    -0.059    21.615     6.617
    49   8 O        0.860    -0.419    22.067     6.298
    50   6 C        3.769    -0.113    22.693     6.789
    51   6 C        3.797    -0.069    21.821     6.651
    52   6 C        3.795    -0.063    21.718     6.636
    53   6 C        3.734     0.023    20.279     6.427
    54   7 N        2.690    -0.209    25.543     7.506
    55   6 C        2.735     0.233    23.109     7.870
    56   7 N        1.784    -0.445    32.630     8.460
    57   7 N        2.636    -0.305    27.865     7.840
    58   6 C        3.745    -0.118    22.823     6.815
    59   1 H        0.862     0.179     1.221     1.731
    60   1 H        0.919     0.037     2.493     2.469
    61   1 H        0.860     0.215     1.034     1.593
    62   1 H        0.929     0.070     2.083     2.257
    63   1 H        0.916     0.032     2.558     2.501
    64   1 H        0.861     0.196     1.127     1.663
    65   1 H        0.927     0.071     2.077     2.254
    66   1 H        0.926     0.051     2.312     2.378
    67   1 H        0.928     0.027     2.631     2.537
    68   1 H        0.909    -0.016     3.354     2.865
    69   1 H        0.921     0.051     2.311     2.377
    70   1 H        0.860     0.240     0.922     1.504
    71   1 H        0.925     0.034     2.529     2.487
    72   1 H        0.923     0.033     2.543     2.494
    73   1 H        0.920     0.067     2.118     2.276
    74   1 H        0.859     0.189     1.164     1.690
    75   1 H        0.920     0.050     2.315     2.380
    76   1 H        0.927     0.053     2.289     2.366
    77   1 H        0.923     0.053     2.289     2.366
    78   1 H        0.914     0.025     2.663     2.553
    79   1 H        0.924     0.065     2.140     2.288
    80   1 H        0.920     0.049     2.338     2.392
    81   1 H        0.925     0.020     2.728     2.583
    82   1 H        0.861     0.181     1.208     1.722
    83   1 H        0.919     0.057     2.233     2.337
    84   1 H        0.925     0.080     1.974     2.197
    85   1 H        0.926     0.019     2.743     2.590
    86   1 H        0.928     0.017     2.772     2.603
    87   1 H        0.913     0.048     2.353     2.399
    88   1 H        0.924     0.042     2.428     2.437
    89   1 H        0.860     0.178     1.225     1.734
    90   1 H        0.851     0.096     1.833     2.122
    91   1 H        0.920     0.066     2.128     2.281
    92   1 H        0.857     0.170     1.273     1.767
    93   1 H        0.919     0.057     2.233     2.337
    94   1 H        0.923     0.056     2.251     2.346
    95   1 H        0.923     0.054     2.275     2.359
    96   1 H        0.926     0.044     2.390     2.417
    97   1 H        0.902     0.020     2.743     2.591
    98   1 H        0.887     0.020     2.736     2.589
    99   1 H        0.925     0.036     2.502     2.474
   100   1 H        0.924     0.024     2.674     2.557
   101   1 H        0.928     0.050     2.319     2.381
   102   1 H        0.924     0.035     2.513     2.479
   103   1 H        0.928     0.035     2.514     2.480
   104   1 H        0.924     0.055     2.264     2.353
   105   1 H        0.922     0.088     1.896     2.153
   106   1 H        0.924     0.052     2.292     2.367
   107   1 H        0.927     0.057     2.236     2.338
   108   1 H        0.917     0.045     2.385     2.415
   109   1 H        0.920     0.013     2.842     2.637
   110   1 H        0.921     0.031     2.576     2.510
   111   1 H        0.860     0.171     1.267     1.763
   112   1 H        0.860     0.117     1.648     2.011
   113   1 H        0.854     0.148     1.416     1.864
   114   1 H        0.859     0.166     1.295     1.783
   115   1 H        0.921     0.107     1.726     2.055
   116   1 H        0.921     0.022     2.708     2.574
   117   1 H        0.927     0.046     2.369     2.407

 Mol. C6AA /au·bohr⁶  :     136594.697610
 Mol. C8AA /au·bohr⁸  :    3093446.625006
 Mol. α(0) /au        :        551.970978


Wiberg/Mayer (AO) data.
largest (>0.10) Wiberg bond orders for each atom

 ---------------------------------------------------------------------------
     #   Z sym  total        # sym  WBO       # sym  WBO       # sym  WBO
 ---------------------------------------------------------------------------
     1   7 N    3.399 --     7 C    1.243     2 C    0.946    59 H    0.934
                             9 O    0.187
     2   6 C    3.964 --    51 C    0.977    60 H    0.959     3 C    0.956
                             1 N    0.946
     3   6 C    3.955 --     4 O    1.691     5 N    1.238     2 C    0.956
     4   8 O    2.005 --     3 C    1.691     5 N    0.183
     5   7 N    3.411 --     3 C    1.238     6 C    1.003    61 H    0.910
                             4 O    0.183
     6   6 C    3.975 --     5 N    1.003    58 C    0.971    62 H    0.950
                            46 C    0.941
     7   6 C    3.942 --     9 O    1.672     1 N    1.243     8 C    0.938
     8   6 C    3.966 --    10 N    0.997    11 C    0.964    63 H    0.942
                             7 C    0.938
     9   8 O    1.996 --     7 C    1.672     1 N    0.187
    10   7 N    3.432 --    12 C    1.226     8 C    0.997    64 H    0.915
                            15 O    0.187
    11   6 C    3.977 --    13 C    0.999    66 H    0.970    65 H    0.967
                             8 C    0.964
    12   6 C    3.947 --    15 O    1.672    10 N    1.226    14 C    0.955
    13   6 C    3.965 --    11 C    0.999    68 H    0.975    67 H    0.974
                            16 C    0.886
    14   6 C    3.957 --    17 N    0.965    18 C    0.956    12 C    0.955
                            69 H    0.952
    15   8 O    1.979 --    12 C    1.672    10 N    0.187
    16   6 C    3.944 --    20 O    1.526    19 O    1.512    13 C    0.886
    17   7 N    3.462 --    21 C    1.310    14 C    0.965    70 H    0.862
                            24 O    0.202
    18   6 C    3.956 --    72 H    0.979    71 H    0.969    14 C    0.956
                            22 C    0.893
    19   8 O    1.839 --    16 C    1.512    20 O    0.229
    20   8 O    1.829 --    16 C    1.526    19 O    0.229
    21   6 C    3.955 --    24 O    1.638    17 N    1.310    23 C    0.935
    22   6 C    3.948 --    25 O    1.534    26 O    1.501    18 C    0.893
    23   6 C    3.945 --    27 N    0.979    73 H    0.953    21 C    0.935
                            28 C    0.935
    24   8 O    1.983 --    21 C    1.638    17 N    0.202
    25   8 O    1.849 --    22 C    1.534    26 O    0.231
    26   8 O    1.883 --    22 C    1.501    25 O    0.231
    27   7 N    3.453 --    29 C    1.261    23 C    0.979    74 H    0.921
                            32 O    0.209
    28   6 C    3.986 --    30 C    1.021    76 H    0.976    75 H    0.975
                            23 C    0.935
    29   6 C    3.957 --    32 O    1.674    27 N    1.261    31 C    0.957
    30   6 C    3.994 --    28 C    1.021    33 C    0.996    78 H    0.977
                            77 H    0.969
    31   6 C    3.954 --    35 C    0.983    29 C    0.957    79 H    0.947
                            34 N    0.933
    32   8 O    2.008 --    29 C    1.674    27 N    0.209
    33   6 C    3.993 --    30 C    0.996    36 C    0.992    81 H    0.977
                            80 H    0.974
    34   7 N    3.411 --    37 C    1.265    31 C    0.933    82 H    0.928
                            41 O    0.185
    35   6 C    3.988 --    38 C    1.017    31 C    0.983    84 H    0.965
                            83 H    0.957
    36   6 C    3.991 --    39 N    1.030    33 C    0.992    86 H    0.979
                            85 H    0.971
    37   6 C    3.955 --    41 O    1.664    34 N    1.265    40 C    0.942
    38   6 C    3.977 --    35 C    1.017    42 S    1.000    87 H    0.965
                            88 H    0.965
    39   7 N    3.005 --    36 C    1.030    90 H    0.975    89 H    0.944
    40   6 C    3.966 --    43 N    0.983    44 C    0.969    91 H    0.944
                            37 C    0.942
    41   8 O    1.970 --    37 C    1.664    34 N    0.185
    42  16 S    2.109 --    45 C    1.009    38 C    1.000
    43   7 N    3.402 --    46 C    1.209    40 C    0.983    92 H    0.932
                            49 O    0.188
    44   6 C    3.990 --    48 C    1.006    47 C    0.998    40 C    0.969
                            93 H    0.957
    45   6 C    3.968 --    42 S    1.009    96 H    0.981    94 H    0.977
                            95 H    0.973
    46   6 C    3.937 --    49 O    1.708    43 N    1.209     6 C    0.941
    47   6 C    3.991 --    44 C    0.998    97 H    0.985    98 H    0.984
                            99 H    0.983
    48   6 C    3.996 --    50 C    1.018    44 C    1.006   100 H    0.971
                           101 H    0.966
    49   8 O    2.044 --    46 C    1.708    43 N    0.188
    50   6 C    3.987 --    48 C    1.018   103 H    0.985   102 H    0.982
                           104 H    0.981
    51   6 C    3.983 --    52 C    1.003     2 C    0.977   106 H    0.974
                           105 H    0.969
    52   6 C    3.988 --    53 C    1.005    51 C    1.003   108 H    0.973
                           107 H    0.973
    53   6 C    3.973 --    52 C    1.005    54 N    0.999   110 H    0.964
                           109 H    0.961
    54   7 N    3.345 --    55 C    1.174    53 C    0.999   111 H    0.932
                            56 N    0.156
    55   6 C    3.961 --    56 N    1.663    54 N    1.174    57 N    1.095
    56   7 N    2.918 --    55 C    1.663   112 H    0.952    54 N    0.156
    57   7 N    3.177 --    55 C    1.095   114 H    0.956   113 H    0.954
    58   6 C    3.982 --   117 H    0.988   116 H    0.987     6 C    0.971
                           115 H    0.969
    59   1 H    0.968 --     1 N    0.934
    60   1 H    0.999 --     2 C    0.959
    61   1 H    0.954 --     5 N    0.910
    62   1 H    0.995 --     6 C    0.950
    63   1 H    0.999 --     8 C    0.942
    64   1 H    0.962 --    10 N    0.915
    65   1 H    0.995 --    11 C    0.967
    66   1 H    0.996 --    11 C    0.970
    67   1 H    0.999 --    13 C    0.974
    68   1 H    1.000 --    13 C    0.975
    69   1 H    0.997 --    14 C    0.952
    70   1 H    0.942 --    17 N    0.862
    71   1 H    0.999 --    18 C    0.969
    72   1 H    0.998 --    18 C    0.979
    73   1 H    0.995 --    23 C    0.953
    74   1 H    0.964 --    27 N    0.921
    75   1 H    0.997 --    28 C    0.975
    76   1 H    0.997 --    28 C    0.976
    77   1 H    0.997 --    30 C    0.969
    78   1 H    0.999 --    30 C    0.977
    79   1 H    0.996 --    31 C    0.947
    80   1 H    0.998 --    33 C    0.974
    81   1 H    0.999 --    33 C    0.977
    82   1 H    0.967 --    34 N    0.928
    83   1 H    0.996 --    35 C    0.957
    84   1 H    0.993 --    35 C    0.965
    85   1 H    0.999 --    36 C    0.971
    86   1 H    1.000 --    36 C    0.979
    87   1 H    0.998 --    38 C    0.965
    88   1 H    0.998 --    38 C    0.965
    89   1 H    0.968 --    39 N    0.944
    90   1 H    0.991 --    39 N    0.975
    91   1 H    0.995 --    40 C    0.944
    92   1 H    0.971 --    43 N    0.932
    93   1 H    0.996 --    44 C    0.957
    94   1 H    0.997 --    45 C    0.977
    95   1 H    0.997 --    45 C    0.973
    96   1 H    0.998 --    45 C    0.981
    97   1 H    1.000 --    47 C    0.985
    98   1 H    0.999 --    47 C    0.984
    99   1 H    0.999 --    47 C    0.983
   100   1 H    0.999 --    48 C    0.971
   101   1 H    0.997 --    48 C    0.966
   102   1 H    0.999 --    50 C    0.982
   103   1 H    0.999 --    50 C    0.985
   104   1 H    0.997 --    50 C    0.981
   105   1 H    0.992 --    51 C    0.969
   106   1 H    0.997 --    51 C    0.974
   107   1 H    0.997 --    52 C    0.973
   108   1 H    0.997 --    52 C    0.973
   109   1 H    1.000 --    53 C    0.961
   110   1 H    0.999 --    53 C    0.964
   111   1 H    0.971 --    54 N    0.932
   112   1 H    0.986 --    56 N    0.952
   113   1 H    0.978 --    57 N    0.954
   114   1 H    0.972 --    57 N    0.956
   115   1 H    0.988 --    58 C    0.969
   116   1 H    0.999 --    58 C    0.987
   117   1 H    0.998 --    58 C    0.988
 ---------------------------------------------------------------------------

Topologies differ in total number of bonds
Writing topology from bond orders to xtbtopo.mol

molecular dipole:
                 x           y           z       tot (Debye)
 q only:        3.087      14.791       1.530
   full:        3.466      14.520       1.319      38.090
molecular quadrupole (traceless):
                xx          xy          yy          xz          yz          zz
 q only:        2.922       7.037     -53.950      63.874     -92.327      51.028
  q+dip:      -11.864      21.425     -46.322      64.127     -93.937      58.186
   full:      -12.152      22.622     -45.293      63.034     -94.231      57.445


           -------------------------------------------------
          | TOTAL ENERGY             -185.557557408297 Eh   |
          | GRADIENT NORM               0.343483968583 Eh/α |
          | HOMO-LUMO GAP               0.351373605214 eV   |
           -------------------------------------------------

------------------------------------------------------------------------
 * finished run on 2026/05/23 at 12:47:01.226     
------------------------------------------------------------------------
 total:
 * wall-time:     0 d,  0 h,  0 min, 25.768 sec
 *  cpu-time:     0 d,  0 h,  0 min, 29.375 sec
 * ratio c/w:     1.140 speedup
 SCF:
 * wall-time:     0 d,  0 h,  0 min, 22.747 sec
 *  cpu-time:     0 d,  0 h,  0 min, 28.279 sec
 * ratio c/w:     1.243 speedup

normal termination of xtb
