      -----------------------------------------------------------      
     |                   =====================                   |     
     |                           x T B                           |     
     |                   =====================                   |     
     |                         S. Grimme                         |     
     |          Mulliken Center for Theoretical Chemistry        |     
     |                    University of Bonn                     |     
      -----------------------------------------------------------      

   * xtb version 6.7.1 (26dd68d) compiled by 'froitzheim@fs7' on 2026-05-14

   xtb is free software: you can redistribute it and/or modify it under
   the terms of the GNU Lesser General Public License as published by
   the Free Software Foundation, either version 3 of the License, or
   (at your option) any later version.
   
   xtb is distributed in the hope that it will be useful,
   but WITHOUT ANY WARRANTY; without even the implied warranty of
   MERCHANTABILITY or FITNESS FOR A PARTICULAR PURPOSE.  See the
   GNU Lesser General Public License for more details.
   
   Cite this work as:
   * C. Bannwarth, E. Caldeweyher, S. Ehlert, A. Hansen, P. Pracht,
     J. Seibert, S. Spicher, S. Grimme, WIREs Comput. Mol. Sci., 2020, 11,
     e01493. DOI: 10.1002/wcms.1493
   
   for g-xTB:
   * T. Froitzheim, M. Müller, A. Hansen, S. Grimme, ChemRxiv, 2025, preprint.
     DOI: 10.26434/chemrxiv-2025-bjxv
   for GFN2-xTB:
   * C. Bannwarth, S. Ehlert and S. Grimme., J. Chem. Theory Comput., 2019,
     15, 1652-1671. DOI: 10.1021/acs.jctc.8b01176
   for GFN1-xTB:
   * S. Grimme, C. Bannwarth, P. Shushkov, J. Chem. Theory Comput., 2017,
     13, 1989-2009. DOI: 10.1021/acs.jctc.7b00118
   for GFN0-xTB:
   * P. Pracht, E. Caldeweyher, S. Ehlert, S. Grimme, ChemRxiv, 2019, preprint.
     DOI: 10.26434/chemrxiv.8326202.v1
   for GFN-FF:
   * S. Spicher and S. Grimme, Angew. Chem. Int. Ed., 2020, 59, 15665-15673.
     DOI: 10.1002/anie.202004239
   
   for ALPB and GBSA implicit solvation:
   * S. Ehlert, M. Stahn, S. Spicher, S. Grimme, J. Chem. Theory Comput.,
     2021, 17, 4250-4261. DOI: 10.1021/acs.jctc.1c00471
   
   for ddCOSMO and CPCM-X implicit solvation:
   * M. Stahn, S. Ehlert, S. Grimme, J. Phys. Chem. A,
     2023, XX, XXXX-XXXX. DOI: 10.1021/acs.jpca.3c04382
   
   for DFT-D4:
   * E. Caldeweyher, C. Bannwarth and S. Grimme, J. Chem. Phys., 2017,
     147, 034112. DOI: 10.1063/1.4993215
   * E. Caldeweyher, S. Ehlert, A. Hansen, H. Neugebauer, S. Spicher,
     C. Bannwarth and S. Grimme, J. Chem. Phys., 2019, 150, 154122.
     DOI: 10.1063/1.5090222
   * E. Caldeweyher, J.-M. Mewes, S. Ehlert and S. Grimme, Phys. Chem. Chem. Phys.
     2020, 22, 8499-8512. DOI: 10.1039/D0CP00502A
   
   for sTDA-xTB:
   * S. Grimme and C. Bannwarth, J. Chem. Phys., 2016, 145, 054103.
     DOI: 10.1063/1.4959605
   
   in the mass-spec context:
   * V. Asgeirsson, C. Bauer and S. Grimme, Chem. Sci., 2017, 8, 4879.
     DOI: 10.1039/c7sc00601b
   * J. Koopman and S. Grimme, ACS Omega 2019, 4, 12, 15120-15133.
     DOI: 10.1021/acsomega.9b02011
   
   for metadynamics refer to:
   * S. Grimme, J. Chem. Theory Comput., 2019, 155, 2847-2862
     DOI: 10.1021/acs.jctc.9b00143
   
   for SPH calculations refer to:
   * S. Spicher and S. Grimme, J. Chem. Theory Comput., 2021, 17, 1701-1714
     DOI: 10.1021/acs.jctc.0c01306
   
   for ONIOM refer to:
   * C. Plett, A. Katbashev, S. Ehlert, S. Grimme, M. Bursch,
     Phys. Chem. Chem. Phys., 2023, 25, 17860-17868. DOI: 10.1039/D3CP02178E
   
   for DIPRO refer to:
   * J. Kohn, N. Gildemeister, S. Grimme, D. Fazzi, A. Hansen,
     J. Chem. Phys. 159, 144106 (2023). DOI: 10.1063/5.0167484
   
   for PTB refer to:
   * S. Grimme, M. Mueller, A. Hansen, J. Chem. Phys., 2023, 158, 124111.
     DOI: 10.1063/5.0137838
   
   with help from (in alphabetical order)
   P. Atkinson, C. Bannwarth, F. Bohle, G. Brandenburg, E. Caldeweyher,
   M. Checinski, S. Dohm, S. Ehlert, S. Ehrlich, M. Friede, T. Froitzheim,
   I. Gerasimov, C. Hölzer, A. Katbashev, J. Kohn, J. Koopman, C. Lavigne,
   S. Lehtola, F. März, M. Müller, F. Musil, H. Neugebauer, J. Pisarek,
   C. Plett, P. Pracht, F. Pultar, J. Seibert, P. Shushkov, S. Spicher,
   M. Stahn, M. Steiner, T. Strunk, J. Stückrath, T. Rose, and J. Unsleber
   
 * started run on 2026/05/23 at 12:47:02.014     
   ID    Z sym.   atoms
    1    7 N      1, 5, 10, 17, 27, 34, 39, 43, 54, 56, 57
    2    6 C      2, 3, 6-8, 11-14, 16, 18, 21-23, 28-31, 33, 35-38, 40,
                  44-48, 50-53, 55, 58
    3    8 O      4, 9, 15, 19, 20, 24-26, 32, 41, 49
    4   16 S      42
    5    1 H      59-117

           -------------------------------------------------
          |                Calculation Setup                |
           -------------------------------------------------

          program call               : /home/xchen/software/xtb-6.7.1-gxtb/bin/xtb /home/xchen/Test/benchmark/md_sampled/04_7_0231_n2/snap_0085.xyz --charge -2 --gxtb --norestart
          coordinate file            : /home/xchen/Test/benchmark/md_sampled/04_7_0231_n2/snap_0085.xyz
          omp threads                :                    48

core increment energy         -2.9312527735450E+03 Eh
dispersion energy              2.3836168409534E-02 Eh
molecular charge              -2.0000000000000E+00 e
number of electrons            3.2799999999710E+02 e
number of unpaired electrons   0.0000000000000E+00 e
wavefunction                   restricted
integral cutoff                2.6907767250513E+01 bohr
energy convergence             1.0000000000000E-06 Eh
density convergence            2.0000000000000E-05 e

------------------------------------------------------------
  cycle        total energy    energy error   density error
------------------------------------------------------------
      1     -3195.913937420  -2.6468500E+02   0.0000000E+00
      2     -3196.406203106  -4.9226569E-01   2.0396570E-02
      3     -3196.720715825  -3.1451272E-01   1.6021354E-02
      4     -3197.382712808  -6.6199698E-01   1.2641581E-02
      5     -3197.392688168  -9.9753593E-03   8.6719693E-04
      6     -3197.393487748  -7.9958004E-04   1.6830768E-04
      7     -3197.393563948  -7.6200407E-05   5.2328498E-05
      8     -3197.393568982  -5.0338342E-06   1.5723430E-05
      9     -3197.393569634  -6.5204921E-07   2.5121222E-06
------------------------------------------------------------

electronic energy             -2.6616463225738E+02 Eh
total energy                  -3.1973935696340E+03 Eh

Post processing:
 | Mayer-Wiberg bond orders
 | Molecular Multipole Moments

 total:                                  10.904 sec
 - increment                              0.000 sec (  0%)
 - repulsion                              0.010 sec (  0%)
 - dispersion                             0.371 sec (  3%)
 - coulomb                                0.152 sec (  1%)
 - exchange                               0.003 sec (  0%)
 - hamiltonian                            0.396 sec (  3%)
 - acp                                    0.344 sec (  3%)
 - spin polarization                      0.000 sec (  0%)
 - post processing                        0.144 sec (  1%)
 - scc                                    8.494 sec ( 77%)
 - coulomb gradient                       0.084 sec (  0%)
 - dispersion gradient                    0.052 sec (  0%)
 - exchange gradient                      0.130 sec (  1%)
 - repulsion gradient                     0.005 sec (  0%)
 - acp gradient                           0.332 sec (  3%)
 - hamiltonian gradient                   0.523 sec (  4%)
 - gradient                               1.126 sec ( 10%)

         :::::::::::::::::::::::::::::::::::::::::::::::::::::
         ::                     SUMMARY                     ::
         :::::::::::::::::::::::::::::::::::::::::::::::::::::
         :: total energy           -3197.393569633968 Eh    ::
         :: gradient norm              0.369762740304 Eh/a0 ::
         :: HOMO-LUMO gap              6.112252033934 eV    ::
         ::.................................................::
         :: add. restraining           0.000000000000 Eh    ::
         :: total charge              -2.000000000000 e     ::
         :::::::::::::::::::::::::::::::::::::::::::::::::::::

           -------------------------------------------------
          |                Property Printout                |
           -------------------------------------------------

    * Orbital Energies and Occupations
------------------------------------------------------------------
      #    Occupation            Energy/Eh            Energy/eV
------------------------------------------------------------------
      1        2.0000           -1.2292455             -33.4495
    ...           ...                  ...                  ...
    152        2.0000           -0.2150964              -5.8531
    153        2.0000           -0.2142064              -5.8289
    154        2.0000           -0.2111668              -5.7461
    155        2.0000           -0.2039188              -5.5489
    156        2.0000           -0.1927391              -5.2447
    157        2.0000           -0.1835721              -4.9953
    158        2.0000           -0.1645852              -4.4786
    159        2.0000           -0.1615514              -4.3960
    160        2.0000           -0.1443087              -3.9268
    161        2.0000           -0.1368833              -3.7248
    162        2.0000           -0.1358890              -3.6977
    163        2.0000           -0.1204755              -3.2783
    164        2.0000           -0.1073797              -2.9220 (HOMO)
    165                          0.1172414               3.1903 (LUMO)
    166                          0.1453525               3.9552
    167                          0.1480920               4.0298
    168                          0.1549907               4.2175
    169                          0.1699045               4.6233
    170                          0.1722196               4.6863
    171                          0.1805537               4.9131
    172                          0.1822740               4.9599
    173                          0.1901165               5.1733
    174                          0.2119884               5.7685
    175                          0.2367817               6.4432
    ...                                ...                  ...
    296                          0.8968064              24.4033
------------------------------------------------------------------
               HL-Gap            0.2246211 Eh            6.1123 eV
------------------------------------------------------------------

Atomic charges and shell populations (in atomic units):
-----------------------------------------------------------------
     #    Z                q          p(s)       p(p)       p(d)
-----------------------------------------------------------------
     1    7 N      -0.352689      1.378672   3.974017
     2    6 C       0.010381      1.142051   2.847567
     3    6 C       0.443549      1.077438   2.479013
     4    8 O      -0.550089      1.848551   4.701538
     5    7 N      -0.324599      1.361894   3.962705
     6    6 C      -0.013934      1.112330   2.901604
     7    6 C       0.411875      1.109007   2.479118
     8    6 C       0.010957      1.097147   2.891896
     9    8 O      -0.556560      1.851210   4.705349
    10    7 N      -0.326665      1.359666   3.966998
    11    6 C      -0.184586      1.153342   3.031244
    12    6 C       0.413305      1.109543   2.477152
    13    6 C      -0.207907      1.173465   3.034442
    14    6 C       0.009601      1.133957   2.856442
    15    8 O      -0.561743      1.856017   4.705726
    16    6 C       0.513010      1.085073   2.401917
    17    7 N      -0.342280      1.382350   3.959929
    18    6 C      -0.203157      1.176640   3.026517
    19    8 O      -0.701795      1.855930   4.845865
    20    8 O      -0.697989      1.860581   4.837408
    21    6 C       0.421723      1.096606   2.481671
    22    6 C       0.513551      1.075642   2.410807
    23    6 C      -0.002320      1.151938   2.850382
    24    8 O      -0.579393      1.851152   4.728240
    25    8 O      -0.673756      1.861149   4.812607
    26    8 O      -0.695398      1.851153   4.844245
    27    7 N      -0.337985      1.376495   3.961490
    28    6 C      -0.167115      1.162671   3.004444
    29    6 C       0.400875      1.100772   2.498352
    30    6 C      -0.171296      1.143979   3.027317
    31    6 C       0.004573      1.143290   2.852138
    32    8 O      -0.538078      1.856939   4.681138
    33    6 C      -0.194117      1.165400   3.028717
    34    7 N      -0.339991      1.388450   3.951541
    35    6 C      -0.168564      1.151320   3.017244
    36    6 C      -0.099746      1.128940   2.970806
    37    6 C       0.418008      1.090963   2.491029
    38    6 C      -0.121625      1.163461   2.958163
    39    7 N      -0.524992      1.398651   4.126341
    40    6 C       0.004110      1.124162   2.871728
    41    8 O      -0.562025      1.852633   4.709393
    42   16 S      -0.205157      1.886479   4.236834   0.081844
    43    7 N      -0.362057      1.352944   4.009113
    44    6 C      -0.105636      1.118252   2.987384
    45    6 C      -0.220377      1.186527   3.033850
    46    6 C       0.413717      1.113033   2.473249
    47    6 C      -0.225933      1.184753   3.041180
    48    6 C      -0.203145      1.131321   3.071824
    49    8 O      -0.515935      1.854290   4.661645
    50    6 C      -0.273888      1.156635   3.117253
    51    6 C      -0.159555      1.160277   2.999278
    52    6 C      -0.181192      1.146804   3.034388
    53    6 C      -0.079166      1.129890   2.949276
    54    7 N      -0.369766      1.361289   4.008477
    55    6 C       0.290549      1.078663   2.630788
    56    7 N      -0.565729      1.565434   4.000296
    57    7 N      -0.462098      1.423730   4.038369
    58    6 C      -0.267509      1.173386   3.094124
    59    1 H       0.254944      0.745056
    60    1 H       0.108265      0.891735
    61    1 H       0.300305      0.699695
    62    1 H       0.129505      0.870495
    63    1 H       0.092839      0.907161
    64    1 H       0.272523      0.727477
    65    1 H       0.127158      0.872842
    66    1 H       0.117293      0.882707
    67    1 H       0.111929      0.888071
    68    1 H       0.061562      0.938438
    69    1 H       0.119060      0.880940
    70    1 H       0.308120      0.691880
    71    1 H       0.109615      0.890385
    72    1 H       0.104830      0.895170
    73    1 H       0.129044      0.870956
    74    1 H       0.273013      0.726987
    75    1 H       0.100396      0.899604
    76    1 H       0.112706      0.887294
    77    1 H       0.110766      0.889234
    78    1 H       0.077617      0.922383
    79    1 H       0.127045      0.872955
    80    1 H       0.110817      0.889183
    81    1 H       0.078565      0.921435
    82    1 H       0.271837      0.728163
    83    1 H       0.109619      0.890381
    84    1 H       0.134101      0.865899
    85    1 H       0.088776      0.911224
    86    1 H       0.082686      0.917314
    87    1 H       0.100125      0.899875
    88    1 H       0.093150      0.906850
    89    1 H       0.262862      0.737138
    90    1 H       0.191986      0.808014
    91    1 H       0.124997      0.875003
    92    1 H       0.255665      0.744335
    93    1 H       0.114176      0.885824
    94    1 H       0.112255      0.887745
    95    1 H       0.115592      0.884408
    96    1 H       0.098629      0.901371
    97    1 H       0.072829      0.927171
    98    1 H       0.065230      0.934770
    99    1 H       0.086765      0.913235
   100    1 H       0.081561      0.918439
   101    1 H       0.118161      0.881839
   102    1 H       0.087663      0.912337
   103    1 H       0.093234      0.906766
   104    1 H       0.114467      0.885533
   105    1 H       0.135854      0.864146
   106    1 H       0.102012      0.897988
   107    1 H       0.118598      0.881402
   108    1 H       0.103448      0.896552
   109    1 H       0.074985      0.925015
   110    1 H       0.086290      0.913710
   111    1 H       0.261989      0.738011
   112    1 H       0.218506      0.781494
   113    1 H       0.227684      0.772316
   114    1 H       0.238846      0.761154
   115    1 H       0.157651      0.842349
   116    1 H       0.071323      0.928677
   117    1 H       0.106279      0.893721
-----------------------------------------------------------------


Wiberg/Mayer (AO) data.
largest (>0.10) Wiberg bond orders for each atom

 ---------------------------------------------------------------------------
     #   Z sym  total        # sym  WBO       # sym  WBO       # sym  WBO
 ---------------------------------------------------------------------------
     1   7 N    3.293 --     7 C    1.210     2 C    0.942    59 N    0.899
                             9 C    0.154
     2   6 C    3.933 --    51 C    0.982    60 N    0.943     3 C    0.943
                             1 N    0.942
     3   6 C    3.878 --     4 C    1.650     5 N    1.219     2 C    0.943
     4   8 C    1.930 --     3 C    1.650     5 N    0.155
     5   7 N    3.314 --     3 C    1.219     6 C    0.992    61 N    0.865
                             4 C    0.155
     6   6 C    3.947 --     5 N    0.992    58 C    0.978    62 N    0.936
                            46 C    0.926
     7   6 C    3.857 --     9 C    1.632     1 N    1.210     8 C    0.928
     8   6 C    3.940 --    10 N    0.989    11 C    0.971    63 N    0.932
                             7 C    0.928
     9   8 C    1.917 --     7 C    1.632     1 N    0.154
    10   7 N    3.333 --    12 C    1.195     8 C    0.989    64 N    0.876
                            15 C    0.158
    11   6 C    3.945 --    13 C    1.002     8 C    0.971    66 N    0.950
                            65 N    0.948
    12   6 C    3.864 --    15 C    1.647    10 N    1.195    14 C    0.939
    13   6 C    3.954 --    11 C    1.002    68 N    0.964    67 N    0.957
                            16 C    0.899
    14   6 C    3.921 --    18 C    0.969    17 N    0.950    12 C    0.939
                            69 N    0.935
    15   8 C    1.916 --    12 C    1.647    10 N    0.158
    16   6 C    3.858 --    20 C    1.478    19 C    1.462    13 C    0.899
    17   7 N    3.356 --    21 C    1.280    14 C    0.950    70 N    0.830
                            24 C    0.169
    18   6 C    3.940 --    14 C    0.969    72 N    0.961    71 N    0.955
                            22 C    0.903
    19   8 C    1.760 --    16 C    1.462    20 C    0.194
    20   8 C    1.748 --    16 C    1.478    19 C    0.194
    21   6 C    3.877 --    24 C    1.601    17 N    1.280    23 C    0.931
    22   6 C    3.867 --    25 C    1.491    26 C    1.453    18 C    0.903
    23   6 C    3.905 --    27 N    0.956    28 C    0.939    73 N    0.939
                            21 C    0.931
    24   8 C    1.909 --    21 C    1.601    17 N    0.169
    25   8 C    1.772 --    22 C    1.491    26 C    0.196
    26   8 C    1.788 --    22 C    1.453    25 C    0.196
    27   7 N    3.344 --    29 C    1.242    23 C    0.956    74 N    0.880
                            32 C    0.174
    28   6 C    3.955 --    30 C    1.023    75 N    0.959    76 N    0.955
                            23 C    0.939
    29   6 C    3.886 --    32 C    1.642    27 N    1.242    31 C    0.942
    30   6 C    3.968 --    28 C    1.023    33 C    0.997    78 N    0.962
                            77 N    0.947
    31   6 C    3.917 --    35 C    0.978    29 C    0.942    79 N    0.935
                            34 N    0.924
    32   8 C    1.942 --    29 C    1.642    27 N    0.174
    33   6 C    3.963 --    30 C    0.997    36 C    0.990    81 N    0.963
                            80 N    0.954
    34   7 N    3.312 --    37 C    1.246    31 C    0.924    82 N    0.882
                            41 C    0.160
    35   6 C    3.954 --    38 C    1.015    31 C    0.978    83 N    0.947
                            84 N    0.943
    36   6 C    3.960 --    39 N    1.025    33 C    0.990    86 N    0.964
                            85 N    0.957
    37   6 C    3.882 --    41 C    1.624    34 N    1.246    40 C    0.930
    38   6 C    3.946 --    35 C    1.015    42 O    0.993    88 N    0.953
                            87 N    0.949
    39   7 N    2.944 --    36 C    1.025    90 N    0.947    89 N    0.901
    40   6 C    3.936 --    43 N    0.975    44 C    0.973    37 C    0.930
                            91 N    0.929
    41   8 C    1.902 --    37 C    1.624    34 N    0.160
    42  16 O    2.106 --    45 C    1.000    38 C    0.993
    43   7 N    3.291 --    46 C    1.167    40 C    0.975    92 N    0.894
                            49 C    0.152
    44   6 C    3.975 --    47 C    1.001    48 C    0.999    40 C    0.973
                            93 N    0.938
    45   6 C    3.923 --    42 O    1.000    96 N    0.968    94 N    0.968
                            95 N    0.957
    46   6 C    3.854 --    49 C    1.689    43 N    1.167     6 C    0.926
    47   6 C    3.958 --    44 C    1.001    98 N    0.974    97 N    0.973
                            99 N    0.967
    48   6 C    3.969 --    50 C    1.025    44 C    0.999   100 N    0.958
                           101 N    0.948
    49   8 C    1.984 --    46 C    1.689    43 N    0.152
    50   6 C    3.957 --    48 C    1.025   103 N    0.973   102 N    0.969
                           104 N    0.965
    51   6 C    3.952 --    52 C    0.998     2 C    0.982   106 N    0.959
                           105 N    0.949
    52   6 C    3.959 --    53 C    1.007    51 C    0.998   108 N    0.960
                           107 N    0.954
    53   6 C    3.930 --    52 C    1.007    54 N    0.980   110 N    0.953
                           109 N    0.948
    54   7 N    3.238 --    55 C    1.150    53 C    0.980   111 N    0.891
                            56 N    0.122
    55   6 C    3.941 --    56 N    1.682    54 N    1.150    57 N    1.079
    56   7 N    2.870 --    55 C    1.682   112 N    0.915    54 N    0.122
    57   7 N    3.084 --    55 C    1.079   114 N    0.923   113 N    0.922
    58   6 C    3.940 --   116 N    0.979     6 C    0.978   117 N    0.970
                           115 N    0.952
    59   1 N    0.935 --     1 N    0.899
    60   1 N    0.988 --     2 C    0.943
    61   1 N    0.910 --     5 N    0.865
    62   1 N    0.983 --     6 C    0.936
    63   1 N    0.991 --     8 C    0.932
    64   1 N    0.926 --    10 N    0.876
    65   1 N    0.984 --    11 C    0.948
    66   1 N    0.986 --    11 C    0.950
    67   1 N    0.987 --    13 C    0.957
    68   1 N    0.996 --    13 C    0.964
    69   1 N    0.986 --    14 C    0.935
    70   1 N    0.905 --    17 N    0.830
    71   1 N    0.988 --    18 C    0.955
    72   1 N    0.989 --    18 C    0.961
    73   1 N    0.983 --    23 C    0.939
    74   1 N    0.925 --    27 N    0.880
    75   1 N    0.990 --    28 C    0.959
    76   1 N    0.987 --    28 C    0.955
    77   1 N    0.988 --    30 C    0.947
    78   1 N    0.994 --    30 C    0.962
    79   1 N    0.984 --    31 C    0.935
    80   1 N    0.988 --    33 C    0.954
    81   1 N    0.994 --    33 C    0.963
    82   1 N    0.926 --    34 N    0.882
    83   1 N    0.988 --    35 C    0.947
    84   1 N    0.982 --    35 C    0.943
    85   1 N    0.992 --    36 C    0.957
    86   1 N    0.993 --    36 C    0.964
    87   1 N    0.990 --    38 C    0.949
    88   1 N    0.991 --    38 C    0.953
    89   1 N    0.931 --    39 N    0.901
    90   1 N    0.963 --    39 N    0.947
    91   1 N    0.984 --    40 C    0.929
    92   1 N    0.935 --    43 N    0.894
    93   1 N    0.987 --    44 C    0.938
    94   1 N    0.987 --    45 C    0.968
    95   1 N    0.987 --    45 C    0.957
    96   1 N    0.990 --    45 C    0.968
    97   1 N    0.995 --    47 C    0.973
    98   1 N    0.996 --    47 C    0.974
    99   1 N    0.992 --    47 C    0.967
   100   1 N    0.993 --    48 C    0.958
   101   1 N    0.986 --    48 C    0.948
   102   1 N    0.992 --    50 C    0.969
   103   1 N    0.991 --    50 C    0.973
   104   1 N    0.987 --    50 C    0.965
   105   1 N    0.982 --    51 C    0.949
   106   1 N    0.990 --    51 C    0.959
   107   1 N    0.986 --    52 C    0.954
   108   1 N    0.989 --    52 C    0.960
   109   1 N    0.994 --    53 C    0.948
   110   1 N    0.993 --    53 C    0.953
   111   1 N    0.931 --    54 N    0.891
   112   1 N    0.952 --    56 N    0.915
   113   1 N    0.948 --    57 N    0.922
   114   1 N    0.943 --    57 N    0.923
   115   1 N    0.975 --    58 C    0.952
   116   1 N    0.995 --    58 C    0.979
   117   1 N    0.989 --    58 C    0.970
 ---------------------------------------------------------------------------

Topologies differ in total number of bonds
Writing topology from bond orders to xtbtopo.mol

Atomic dipole moments (in atomic units):
---------------------------------------------------------
     #    Z                 x            y            z
---------------------------------------------------------
           total     3.199593    14.461780     1.508817
---------------------------------------------------------
         |total|    14.888150    37.841902 Debye


           -------------------------------------------------
          | TOTAL ENERGY            -3197.393569633968 Eh   |
          | GRADIENT NORM               0.369762740304 Eh/α |
           -------------------------------------------------

------------------------------------------------------------------------
 * finished run on 2026/05/23 at 12:47:13.973     
------------------------------------------------------------------------
 total:
 * wall-time:     0 d,  0 h,  0 min, 11.958 sec
 *  cpu-time:     0 d,  0 h,  0 min, 27.367 sec
 * ratio c/w:     2.289 speedup
 SCF:
 * wall-time:     0 d,  0 h,  0 min, 11.350 sec
 *  cpu-time:     0 d,  0 h,  0 min, 26.351 sec
 * ratio c/w:     2.322 speedup

normal termination of xtb
