      -----------------------------------------------------------      
     |                   =====================                   |     
     |                           x T B                           |     
     |                   =====================                   |     
     |                         S. Grimme                         |     
     |          Mulliken Center for Theoretical Chemistry        |     
     |                    University of Bonn                     |     
      -----------------------------------------------------------      

   * xtb version 6.7.1 (edcfbbe) compiled by 'albert@albert-system' on 2024-07-22

   xtb is free software: you can redistribute it and/or modify it under
   the terms of the GNU Lesser General Public License as published by
   the Free Software Foundation, either version 3 of the License, or
   (at your option) any later version.
   
   xtb is distributed in the hope that it will be useful,
   but WITHOUT ANY WARRANTY; without even the implied warranty of
   MERCHANTABILITY or FITNESS FOR A PARTICULAR PURPOSE.  See the
   GNU Lesser General Public License for more details.
   
   Cite this work as:
   * C. Bannwarth, E. Caldeweyher, S. Ehlert, A. Hansen, P. Pracht,
     J. Seibert, S. Spicher, S. Grimme, WIREs Comput. Mol. Sci., 2020, 11,
     e01493. DOI: 10.1002/wcms.1493
   
   for GFN2-xTB:
   * C. Bannwarth, S. Ehlert and S. Grimme., J. Chem. Theory Comput., 2019,
     15, 1652-1671. DOI: 10.1021/acs.jctc.8b01176
   for GFN1-xTB:
   * S. Grimme, C. Bannwarth, P. Shushkov, J. Chem. Theory Comput., 2017,
     13, 1989-2009. DOI: 10.1021/acs.jctc.7b00118
   for GFN0-xTB:
   * P. Pracht, E. Caldeweyher, S. Ehlert, S. Grimme, ChemRxiv, 2019, preprint.
     DOI: 10.26434/chemrxiv.8326202.v1
   for GFN-FF:
   * S. Spicher and S. Grimme, Angew. Chem. Int. Ed., 2020, 59, 15665-15673.
     DOI: 10.1002/anie.202004239
   
   for ALPB and GBSA implicit solvation:
   * S. Ehlert, M. Stahn, S. Spicher, S. Grimme, J. Chem. Theory Comput.,
     2021, 17, 4250-4261. DOI: 10.1021/acs.jctc.1c00471
   
   for ddCOSMO and CPCM-X implicit solvation:
   * M. Stahn, S. Ehlert, S. Grimme, J. Phys. Chem. A,
     2023, XX, XXXX-XXXX. DOI: 10.1021/acs.jpca.3c04382
   
   for DFT-D4:
   * E. Caldeweyher, C. Bannwarth and S. Grimme, J. Chem. Phys., 2017,
     147, 034112. DOI: 10.1063/1.4993215
   * E. Caldeweyher, S. Ehlert, A. Hansen, H. Neugebauer, S. Spicher,
     C. Bannwarth and S. Grimme, J. Chem. Phys., 2019, 150, 154122.
     DOI: 10.1063/1.5090222
   * E. Caldeweyher, J.-M. Mewes, S. Ehlert and S. Grimme, Phys. Chem. Chem. Phys.
     2020, 22, 8499-8512. DOI: 10.1039/D0CP00502A
   
   for sTDA-xTB:
   * S. Grimme and C. Bannwarth, J. Chem. Phys., 2016, 145, 054103.
     DOI: 10.1063/1.4959605
   
   in the mass-spec context:
   * V. Asgeirsson, C. Bauer and S. Grimme, Chem. Sci., 2017, 8, 4879.
     DOI: 10.1039/c7sc00601b
   * J. Koopman and S. Grimme, ACS Omega 2019, 4, 12, 15120-15133.
     DOI: 10.1021/acsomega.9b02011
   
   for metadynamics refer to:
   * S. Grimme, J. Chem. Theory Comput., 2019, 155, 2847-2862
     DOI: 10.1021/acs.jctc.9b00143
   
   for SPH calculations refer to:
   * S. Spicher and S. Grimme, J. Chem. Theory Comput., 2021, 17, 1701-1714
     DOI: 10.1021/acs.jctc.0c01306
   
   for ONIOM refer to:
   * C. Plett, A. Katbashev, S. Ehlert, S. Grimme, M. Bursch,
     Phys. Chem. Chem. Phys., 2023, 25, 17860-17868. DOI: 10.1039/D3CP02178E
   
   for DIPRO refer to:
   * J. Kohn, N. Gildemeister, S. Grimme, D. Fazzi, A. Hansen,
     J. Chem. Phys., 2023, just accepted.
   
   for PTB refer to:
   * S. Grimme, M. Mueller, A. Hansen, J. Chem. Phys., 2023, 158, 124111.
     DOI: 10.1063/5.0137838
   
   with help from (in alphabetical order)
   P. Atkinson, C. Bannwarth, F. Bohle, G. Brandenburg, E. Caldeweyher
   M. Checinski, S. Dohm, S. Ehlert, S. Ehrlich, I. Gerasimov, C. Hölzer
   A. Katbashev, J. Kohn, J. Koopman, C. Lavigne, S. Lehtola, F. März, M. Müller,
   F. Musil, H. Neugebauer, J. Pisarek, C. Plett, P. Pracht, F. Pultar,
   J. Seibert, P. Shushkov, S. Spicher, M. Stahn, M. Steiner, T. Strunk,
   J. Stückrath, T. Rose, and J. Unsleber
   
 * started run on 2026/05/23 at 08:15:39.608     
   ID    Z sym.   atoms
    1    7 N      1, 5, 10, 17, 23, 28, 35
    2    6 C      2, 3, 6-8, 11-14, 16, 20, 21, 24-26, 29, 31-34, 36-40
    3    8 O      4, 9, 15, 18, 19, 22, 27, 30
    4    1 H      41-70

           -------------------------------------------------
          |                Calculation Setup                |
           -------------------------------------------------

          program call               : /home/xchen/software/xtb-6.7.1/xtb-dist/bin/xtb /home/xchen/Test/benchmark/md_sampled/01_6_0109_n1/snap_0091.xyz --charge -1 --gfn 2 --norestart
          coordinate file            : /home/xchen/Test/benchmark/md_sampled/01_6_0109_n1/snap_0091.xyz
          omp threads                :                    48


           -------------------------------------------------
          |                 G F N 2 - x T B                 |
           -------------------------------------------------

        Reference                      10.1021/acs.jctc.8b01176
      * Hamiltonian:
        H0-scaling (s, p, d)           1.850000    2.230000    2.230000
        zeta-weighting                 0.500000
      * Dispersion:
        s8                             2.700000
        a1                             0.520000
        a2                             5.000000
        s9                             5.000000
      * Repulsion:
        kExp                           1.500000    1.000000
        rExp                           1.000000
      * Coulomb:
        alpha                          2.000000
        third order                    shell-resolved
        anisotropic                    true
        a3                             3.000000
        a5                             4.000000
        cn-shift                       1.200000
        cn-exp                         4.000000
        max-rad                        5.000000


          ...................................................
          :                      SETUP                      :
          :.................................................:
          :  # basis functions                 190          :
          :  # atomic orbitals                 190          :
          :  # shells                          110          :
          :  # electrons                       214          :
          :  max. iterations                   250          :
          :  Hamiltonian                  GFN2-xTB          :
          :  restarted?                      false          :
          :  GBSA solvation                  false          :
          :  PC potential                    false          :
          :  electronic temp.          300.0000000     K    :
          :  accuracy                    1.0000000          :
          :  -> integral cutoff          0.2500000E+02      :
          :  -> integral neglect         0.1000000E-07      :
          :  -> SCF convergence          0.1000000E-05 Eh   :
          :  -> wf. convergence          0.1000000E-03 e    :
          :  Broyden damping             0.4000000          :
          :  net charge                         -1          :
          :  unpaired electrons                  0          :
          ...................................................

 iter      E             dE          RMSdq      gap      omega  full diag
   1   -123.1193013 -0.123119E+03  0.449E+00    3.14       0.0  T
   2   -123.4770819 -0.357781E+00  0.242E+00    2.13       1.0  T
   3   -123.4949616 -0.178798E-01  0.135E+00    0.83       1.0  T
   4   -122.5095784  0.985383E+00  0.224E+00    0.21       1.0  T
   5   -123.4969599 -0.987382E+00  0.379E-01    0.79       1.0  T
   6   -123.5048529 -0.789299E-02  0.148E-01    0.55       1.0  T
   7   -123.5051561 -0.303136E-03  0.101E-01    0.66       1.0  T
   8   -123.5052293 -0.732384E-04  0.758E-02    0.68       1.0  T
   9   -123.5052717 -0.424442E-04  0.670E-02    0.67       1.0  T
  10   -123.5053194 -0.476328E-04  0.614E-02    0.62       1.0  T
  11   -123.5053524 -0.330347E-04  0.568E-02    0.58       1.0  T
  12   -123.5053856 -0.332295E-04  0.518E-02    0.54       1.0  T
  13   -123.5054478 -0.621821E-04  0.415E-02    0.45       1.0  T
  14   -123.5055785 -0.130632E-03  0.180E-02    0.30       1.0  T
  15   -123.5055288  0.496805E-04  0.230E-02    0.21       1.0  T
  16   -123.5056256 -0.968673E-04  0.983E-04    0.25      12.2  T
  17   -123.5056233  0.233106E-05  0.369E-03    0.24       3.2  T
  18   -123.5056255 -0.218284E-05  0.108E-03    0.25      11.1  T
  19   -123.5056256 -0.140888E-06  0.593E-04    0.25      20.1  T
  20   -123.5056257 -0.577180E-07  0.104E-04    0.25     114.4  T

   *** convergence criteria satisfied after 20 iterations ***

         #    Occupation            Energy/Eh            Energy/eV
      -------------------------------------------------------------
         1        2.0000           -0.6624322             -18.0257
       ...           ...                  ...                  ...
       101        2.0000           -0.3154692              -8.5844
       102        2.0000           -0.3115066              -8.4765
       103        2.0000           -0.3091953              -8.4136
       104        2.0000           -0.3036359              -8.2624
       105        2.0000           -0.2255376              -6.1372
       106        2.0000           -0.2125218              -5.7830
       107        1.9837           -0.1927571              -5.2452 (HOMO)
       108        0.0163           -0.1836325              -4.9969 (LUMO)
       109        0.0000           -0.1772791              -4.8240
       110                         -0.1710563              -4.6547
       111                         -0.1633686              -4.4455
       112                         -0.1604294              -4.3655
       ...                                ...                  ...
       190                          0.9343194              25.4241
      -------------------------------------------------------------
                  HL-Gap            0.0091246 Eh            0.2483 eV
             Fermi-level           -0.1881954 Eh           -5.1211 eV

 SCC (total)                   0 d,  0 h,  0 min, 20.516 sec
 SCC setup                      ...        0 min,  0.038 sec (  0.184%)
 Dispersion                     ...        0 min,  0.082 sec (  0.401%)
 classical contributions        ...        0 min,  0.011 sec (  0.054%)
 integral evaluation            ...        0 min,  0.407 sec (  1.984%)
 iterations                     ...        0 min, 18.978 sec ( 92.503%)
 molecular gradient             ...        0 min,  0.979 sec (  4.772%)
 printout                       ...        0 min,  0.021 sec (  0.101%)

         :::::::::::::::::::::::::::::::::::::::::::::::::::::
         ::                     SUMMARY                     ::
         :::::::::::::::::::::::::::::::::::::::::::::::::::::
         :: total energy            -122.030641979384 Eh    ::
         :: gradient norm              0.367679442485 Eh/a0 ::
         :: HOMO-LUMO gap              0.248292820352 eV    ::
         ::.................................................::
         :: SCC energy              -123.504344360733 Eh    ::
         :: -> isotropic ES            0.408330252763 Eh    ::
         :: -> anisotropic ES          0.008500171619 Eh    ::
         :: -> anisotropic XC          0.031326764369 Eh    ::
         :: -> dispersion             -0.082401401890 Eh    ::
         :: repulsion energy           1.473702381349 Eh    ::
         :: add. restraining           0.000000000000 Eh    ::
         :: total charge              -1.000000000004 e     ::
         :::::::::::::::::::::::::::::::::::::::::::::::::::::

           -------------------------------------------------
          |                Property Printout                |
           -------------------------------------------------

    * Orbital Energies and Occupations

         #    Occupation            Energy/Eh            Energy/eV
      -------------------------------------------------------------
         1        2.0000           -0.6624322             -18.0257
       ...           ...                  ...                  ...
        95        2.0000           -0.3353664              -9.1258
        96        2.0000           -0.3316075              -9.0235
        97        2.0000           -0.3283468              -8.9348
        98        2.0000           -0.3252455              -8.8504
        99        2.0000           -0.3201066              -8.7105
       100        2.0000           -0.3186303              -8.6704
       101        2.0000           -0.3154692              -8.5844
       102        2.0000           -0.3115066              -8.4765
       103        2.0000           -0.3091953              -8.4136
       104        2.0000           -0.3036359              -8.2624
       105        2.0000           -0.2255376              -6.1372
       106        2.0000           -0.2125218              -5.7830
       107        1.9837           -0.1927571              -5.2452 (HOMO)
       108        0.0163           -0.1836325              -4.9969 (LUMO)
       109        0.0000           -0.1772791              -4.8240
       110                         -0.1710563              -4.6547
       111                         -0.1633686              -4.4455
       112                         -0.1604294              -4.3655
       113                         -0.1577355              -4.2922
       114                         -0.1493125              -4.0630
       115                         -0.1432143              -3.8971
       116                         -0.1146723              -3.1204
       117                         -0.0326378              -0.8881
       118                          0.0024335               0.0662
       ...                                ...                  ...
       190                          0.9343194              25.4241
      -------------------------------------------------------------
                  HL-Gap            0.0091246 Eh            0.2483 eV
             Fermi-level           -0.1881954 Eh           -5.1211 eV

     #   Z          covCN         q      C6AA      α(0)
     1   7 N        2.680    -0.207    25.513     7.502
     2   6 C        3.711    -0.025    21.148     6.572
     3   6 C        2.722     0.266    22.502     7.765
     4   8 O        0.857    -0.412    21.920     6.277
     5   7 N        2.675    -0.205    25.470     7.495
     6   6 C        3.794     0.026    20.147     6.392
     7   6 C        2.748     0.268    22.466     7.761
     8   6 C        3.783     0.017    20.313     6.420
     9   8 O        0.860    -0.435    22.395     6.345
    10   7 N        2.698    -0.160    24.467     7.346
    11   6 C        3.789    -0.053    21.546     6.611
    12   6 C        2.782     0.251    22.778     7.817
    13   6 C        3.796    -0.070    21.853     6.656
    14   6 C        3.755    -0.006    20.738     6.493
    15   8 O        0.859    -0.492    23.615     6.515
    16   6 C        2.688     0.379    20.583     7.425
    17   7 N        2.721    -0.173    24.737     7.387
    18   8 O        0.858    -0.586    25.778     6.807
    19   8 O        0.861    -0.587    25.799     6.810
    20   6 C        2.745     0.268    22.477     7.763
    21   6 C        3.795     0.015    20.327     6.420
    22   8 O        0.863    -0.422    22.132     6.308
    23   7 N        2.695    -0.173    24.743     7.388
    24   6 C        3.745    -0.126    22.999     6.841
    25   6 C        2.762     0.265    22.526     7.773
    26   6 C        3.738    -0.000    20.665     6.487
    27   8 O        0.859    -0.451    22.720     6.391
    28   7 N        2.684    -0.214    25.671     7.525
    29   6 C        2.773     0.296    21.977     7.678
    30   8 O        0.863    -0.381    21.295     6.187
    31   6 C        3.821    -0.064    21.708     6.630
    32   6 C        3.122    -0.017    28.257     8.706
    33   6 C        3.042    -0.027    28.645     8.778
    34   6 C        3.104    -0.009    28.109     8.687
    35   7 N        2.766    -0.098    23.165     7.148
    36   6 C        3.148     0.038    26.894     8.483
    37   6 C        2.909    -0.031    28.767     8.795
    38   6 C        2.898    -0.047    29.158     8.854
    39   6 C        2.901    -0.044    29.100     8.845
    40   6 C        2.915    -0.051    29.275     8.872
    41   1 H        0.861     0.182     1.201     1.716
    42   1 H        0.918     0.083     1.950     2.184
    43   1 H        0.926     0.075     2.036     2.232
    44   1 H        0.852     0.197     1.121     1.659
    45   1 H        0.925     0.068     2.102     2.267
    46   1 H        0.927     0.077     2.006     2.215
    47   1 H        0.861     0.188     1.168     1.693
    48   1 H        0.926     0.050     2.319     2.381
    49   1 H        0.909     0.081     1.976     2.199
    50   1 H        0.915    -0.019     3.408     2.887
    51   1 H        0.921     0.002     3.029     2.722
    52   1 H        0.928     0.085     1.931     2.173
    53   1 H        0.922     0.068     2.106     2.270
    54   1 H        0.862     0.194     1.138     1.671
    55   1 H        0.926     0.066     2.134     2.284
    56   1 H        0.861     0.188     1.169     1.694
    57   1 H        0.918     0.051     2.303     2.373
    58   1 H        0.926     0.049     2.338     2.391
    59   1 H        0.928     0.071     2.079     2.254
    60   1 H        0.908     0.056     2.254     2.349
    61   1 H        0.926     0.070     2.090     2.261
    62   1 H        0.858     0.204     1.088     1.634
    63   1 H        0.924     0.053     2.279     2.361
    64   1 H        0.922     0.063     2.167     2.302
    65   1 H        0.926     0.042     2.429     2.437
    66   1 H        0.860     0.158     1.349     1.819
    67   1 H        0.926     0.032     2.563     2.503
    68   1 H        0.919     0.008     2.920     2.673
    69   1 H        0.912     0.014     2.829     2.631
    70   1 H        0.928     0.026     2.641     2.541

 Mol. C6AA /au·bohr⁶  :      56233.534570
 Mol. C8AA /au·bohr⁸  :    1292307.875345
 Mol. α(0) /au        :        359.732799


Wiberg/Mayer (AO) data.
largest (>0.10) Wiberg bond orders for each atom

 ---------------------------------------------------------------------------
     #   Z sym  total        # sym  WBO       # sym  WBO       # sym  WBO
 ---------------------------------------------------------------------------
     1   7 N    3.376 --     7 C    1.212     2 C    0.971    41 H    0.934
                             9 O    0.164
     2   6 C    3.956 --     1 N    0.971    43 H    0.969    42 H    0.967
                             3 C    0.911
     3   6 C    3.943 --     4 O    1.726     5 N    1.225     2 C    0.911
     4   8 O    2.039 --     3 C    1.726     5 N    0.183
     5   7 N    3.374 --     3 C    1.225     6 C    0.981    44 H    0.899
                             4 O    0.183
     6   6 C    3.969 --     5 N    0.981    31 C    0.958    45 H    0.953
                            29 C    0.939
     7   6 C    3.937 --     9 O    1.702     1 N    1.212     8 C    0.938
     8   6 C    3.949 --    10 N    0.966    46 H    0.952    11 C    0.948
                             7 C    0.938
     9   8 O    2.007 --     7 C    1.702     1 N    0.164
    10   7 N    3.490 --    12 C    1.316     8 C    0.966    47 H    0.929
                            15 O    0.205
    11   6 C    3.972 --    13 C    1.006    48 H    0.975    49 H    0.957
                             8 C    0.948
    12   6 C    3.958 --    15 O    1.579    10 N    1.316    14 C    0.996
    13   6 C    3.952 --    11 C    1.006    51 H    0.974    50 H    0.956
                            16 C    0.883
    14   6 C    3.966 --    12 C    0.996    17 N    0.970    53 H    0.958
                            52 H    0.957
    15   8 O    1.891 --    12 C    1.579    10 N    0.205
    16   6 C    3.947 --    19 O    1.526    18 O    1.520    13 C    0.883
    17   7 N    3.447 --    20 C    1.259    14 C    0.970    54 H    0.935
                            22 O    0.204
    18   8 O    1.840 --    16 C    1.520    19 O    0.237
    19   8 O    1.837 --    16 C    1.526    18 O    0.237
    20   6 C    3.946 --    22 O    1.708    17 N    1.259    21 C    0.902
    21   6 C    3.964 --    23 N    0.997    24 C    0.982    55 H    0.964
                            20 C    0.902
    22   8 O    2.035 --    20 C    1.708    17 N    0.204
    23   7 N    3.420 --    25 C    1.248    21 C    0.997    56 H    0.926
                            27 O    0.172
    24   6 C    3.986 --    58 H    0.989    57 H    0.985    59 H    0.984
                            21 C    0.982
    25   6 C    3.943 --    27 O    1.674    23 N    1.248    26 C    0.940
    26   6 C    3.984 --    28 N    1.032    61 H    0.958    60 H    0.951
                            25 C    0.940
    27   8 O    1.981 --    25 C    1.674    23 N    0.172
    28   7 N    3.314 --    29 C    1.129    26 C    1.032    62 H    0.913
                            30 O    0.169
    29   6 C    3.945 --    30 O    1.789    28 N    1.129     6 C    0.939
    30   8 O    2.085 --    29 C    1.789    28 N    0.169
    31   6 C    3.990 --    32 C    1.016    64 H    0.967    63 H    0.964
                             6 C    0.958
    32   6 C    3.981 --    33 C    1.525    34 C    1.280    31 C    1.016
    33   6 C    3.911 --    32 C    1.525    35 N    1.176    65 H    0.966
    34   6 C    3.984 --    32 C    1.280    37 C    1.264    36 C    1.247
    35   7 N    3.531 --    36 C    1.206    33 C    1.176    66 H    0.945
    36   6 C    3.958 --    38 C    1.267    34 C    1.247    35 N    1.206
    37   6 C    3.987 --    39 C    1.596    34 C    1.264    67 H    0.964
    38   6 C    3.979 --    40 C    1.588    36 C    1.267    68 H    0.964
    39   6 C    3.983 --    37 C    1.596    40 C    1.259    69 H    0.968
    40   6 C    3.977 --    38 C    1.588    39 C    1.259    70 H    0.974
    41   1 H    0.967 --     1 N    0.934
    42   1 H    0.993 --     2 C    0.967
    43   1 H    0.994 --     2 C    0.969
    44   1 H    0.960 --     5 N    0.899
    45   1 H    0.995 --     6 C    0.953
    46   1 H    0.994 --     8 C    0.952
    47   1 H    0.965 --    10 N    0.929
    48   1 H    0.997 --    11 C    0.975
    49   1 H    0.993 --    11 C    0.957
    50   1 H    1.000 --    13 C    0.956
    51   1 H    1.000 --    13 C    0.974
    52   1 H    0.992 --    14 C    0.957
    53   1 H    0.995 --    14 C    0.958
    54   1 H    0.962 --    17 N    0.935
    55   1 H    0.996 --    21 C    0.964
    56   1 H    0.965 --    23 N    0.926
    57   1 H    0.997 --    24 C    0.985
    58   1 H    0.997 --    24 C    0.989
    59   1 H    0.995 --    24 C    0.984
    60   1 H    0.997 --    26 C    0.951
    61   1 H    0.995 --    26 C    0.958
    62   1 H    0.958 --    28 N    0.913
    63   1 H    0.997 --    31 C    0.964
    64   1 H    0.995 --    31 C    0.967
    65   1 H    0.997 --    33 C    0.966
    66   1 H    0.975 --    35 N    0.945
    67   1 H    0.999 --    37 C    0.964
    68   1 H    0.999 --    38 C    0.964
    69   1 H    0.999 --    39 C    0.968
    70   1 H    0.999 --    40 C    0.974
 ---------------------------------------------------------------------------

Topologies differ in total number of bonds
Writing topology from bond orders to xtbtopo.mol

molecular dipole:
                 x           y           z       tot (Debye)
 q only:        3.208       9.600       7.613
   full:        3.000       9.648       7.651      32.214
molecular quadrupole (traceless):
                xx          xy          yy          xz          yz          zz
 q only:       61.842     -57.007     -38.654     -38.016    -127.451     -23.188
  q+dip:       56.490     -59.063     -34.883     -32.745    -134.064     -21.608
   full:       59.136     -59.481     -37.529     -34.487    -132.535     -21.606


           -------------------------------------------------
          | TOTAL ENERGY             -122.030641979384 Eh   |
          | GRADIENT NORM               0.367679442485 Eh/α |
          | HOMO-LUMO GAP               0.248292820352 eV   |
           -------------------------------------------------

------------------------------------------------------------------------
 * finished run on 2026/05/23 at 08:16:01.242     
------------------------------------------------------------------------
 total:
 * wall-time:     0 d,  0 h,  0 min, 21.634 sec
 *  cpu-time:     0 d,  0 h,  0 min, 27.090 sec
 * ratio c/w:     1.252 speedup
 SCF:
 * wall-time:     0 d,  0 h,  0 min, 20.517 sec
 *  cpu-time:     0 d,  0 h,  0 min, 26.344 sec
 * ratio c/w:     1.284 speedup

normal termination of xtb
