      -----------------------------------------------------------      
     |                   =====================                   |     
     |                           x T B                           |     
     |                   =====================                   |     
     |                         S. Grimme                         |     
     |          Mulliken Center for Theoretical Chemistry        |     
     |                    University of Bonn                     |     
      -----------------------------------------------------------      

   * xtb version 6.7.1 (edcfbbe) compiled by 'albert@albert-system' on 2024-07-22

   xtb is free software: you can redistribute it and/or modify it under
   the terms of the GNU Lesser General Public License as published by
   the Free Software Foundation, either version 3 of the License, or
   (at your option) any later version.
   
   xtb is distributed in the hope that it will be useful,
   but WITHOUT ANY WARRANTY; without even the implied warranty of
   MERCHANTABILITY or FITNESS FOR A PARTICULAR PURPOSE.  See the
   GNU Lesser General Public License for more details.
   
   Cite this work as:
   * C. Bannwarth, E. Caldeweyher, S. Ehlert, A. Hansen, P. Pracht,
     J. Seibert, S. Spicher, S. Grimme, WIREs Comput. Mol. Sci., 2020, 11,
     e01493. DOI: 10.1002/wcms.1493
   
   for GFN2-xTB:
   * C. Bannwarth, S. Ehlert and S. Grimme., J. Chem. Theory Comput., 2019,
     15, 1652-1671. DOI: 10.1021/acs.jctc.8b01176
   for GFN1-xTB:
   * S. Grimme, C. Bannwarth, P. Shushkov, J. Chem. Theory Comput., 2017,
     13, 1989-2009. DOI: 10.1021/acs.jctc.7b00118
   for GFN0-xTB:
   * P. Pracht, E. Caldeweyher, S. Ehlert, S. Grimme, ChemRxiv, 2019, preprint.
     DOI: 10.26434/chemrxiv.8326202.v1
   for GFN-FF:
   * S. Spicher and S. Grimme, Angew. Chem. Int. Ed., 2020, 59, 15665-15673.
     DOI: 10.1002/anie.202004239
   
   for ALPB and GBSA implicit solvation:
   * S. Ehlert, M. Stahn, S. Spicher, S. Grimme, J. Chem. Theory Comput.,
     2021, 17, 4250-4261. DOI: 10.1021/acs.jctc.1c00471
   
   for ddCOSMO and CPCM-X implicit solvation:
   * M. Stahn, S. Ehlert, S. Grimme, J. Phys. Chem. A,
     2023, XX, XXXX-XXXX. DOI: 10.1021/acs.jpca.3c04382
   
   for DFT-D4:
   * E. Caldeweyher, C. Bannwarth and S. Grimme, J. Chem. Phys., 2017,
     147, 034112. DOI: 10.1063/1.4993215
   * E. Caldeweyher, S. Ehlert, A. Hansen, H. Neugebauer, S. Spicher,
     C. Bannwarth and S. Grimme, J. Chem. Phys., 2019, 150, 154122.
     DOI: 10.1063/1.5090222
   * E. Caldeweyher, J.-M. Mewes, S. Ehlert and S. Grimme, Phys. Chem. Chem. Phys.
     2020, 22, 8499-8512. DOI: 10.1039/D0CP00502A
   
   for sTDA-xTB:
   * S. Grimme and C. Bannwarth, J. Chem. Phys., 2016, 145, 054103.
     DOI: 10.1063/1.4959605
   
   in the mass-spec context:
   * V. Asgeirsson, C. Bauer and S. Grimme, Chem. Sci., 2017, 8, 4879.
     DOI: 10.1039/c7sc00601b
   * J. Koopman and S. Grimme, ACS Omega 2019, 4, 12, 15120-15133.
     DOI: 10.1021/acsomega.9b02011
   
   for metadynamics refer to:
   * S. Grimme, J. Chem. Theory Comput., 2019, 155, 2847-2862
     DOI: 10.1021/acs.jctc.9b00143
   
   for SPH calculations refer to:
   * S. Spicher and S. Grimme, J. Chem. Theory Comput., 2021, 17, 1701-1714
     DOI: 10.1021/acs.jctc.0c01306
   
   for ONIOM refer to:
   * C. Plett, A. Katbashev, S. Ehlert, S. Grimme, M. Bursch,
     Phys. Chem. Chem. Phys., 2023, 25, 17860-17868. DOI: 10.1039/D3CP02178E
   
   for DIPRO refer to:
   * J. Kohn, N. Gildemeister, S. Grimme, D. Fazzi, A. Hansen,
     J. Chem. Phys., 2023, just accepted.
   
   for PTB refer to:
   * S. Grimme, M. Mueller, A. Hansen, J. Chem. Phys., 2023, 158, 124111.
     DOI: 10.1063/5.0137838
   
   with help from (in alphabetical order)
   P. Atkinson, C. Bannwarth, F. Bohle, G. Brandenburg, E. Caldeweyher
   M. Checinski, S. Dohm, S. Ehlert, S. Ehrlich, I. Gerasimov, C. Hölzer
   A. Katbashev, J. Kohn, J. Koopman, C. Lavigne, S. Lehtola, F. März, M. Müller,
   F. Musil, H. Neugebauer, J. Pisarek, C. Plett, P. Pracht, F. Pultar,
   J. Seibert, P. Shushkov, S. Spicher, M. Stahn, M. Steiner, T. Strunk,
   J. Stückrath, T. Rose, and J. Unsleber
   
 * started run on 2026/05/23 at 12:24:56.623     
   ID    Z sym.   atoms
    1    7 N      1, 5, 10, 18, 29, 37, 45, 48
    2    6 C      2, 3, 6-8, 11-14, 16, 17, 19-25, 27, 28, 30-33, 35, 36,
                  38-43, 46, 47, 49-56
    3    8 O      4, 9, 15, 26, 34, 44
    4    1 H      57-114

           -------------------------------------------------
          |                Calculation Setup                |
           -------------------------------------------------

          program call               : /home/xchen/software/xtb-6.7.1/xtb-dist/bin/xtb /home/xchen/Test/benchmark/md_sampled/10_6_0573_0/snap_0010.xyz --charge 0 --gfn 2 --norestart
          coordinate file            : /home/xchen/Test/benchmark/md_sampled/10_6_0573_0/snap_0010.xyz
          omp threads                :                    48


           -------------------------------------------------
          |                 G F N 2 - x T B                 |
           -------------------------------------------------

        Reference                      10.1021/acs.jctc.8b01176
      * Hamiltonian:
        H0-scaling (s, p, d)           1.850000    2.230000    2.230000
        zeta-weighting                 0.500000
      * Dispersion:
        s8                             2.700000
        a1                             0.520000
        a2                             5.000000
        s9                             5.000000
      * Repulsion:
        kExp                           1.500000    1.000000
        rExp                           1.000000
      * Coulomb:
        alpha                          2.000000
        third order                    shell-resolved
        anisotropic                    true
        a3                             3.000000
        a5                             4.000000
        cn-shift                       1.200000
        cn-exp                         4.000000
        max-rad                        5.000000


          ...................................................
          :                      SETUP                      :
          :.................................................:
          :  # basis functions                 282          :
          :  # atomic orbitals                 282          :
          :  # shells                          170          :
          :  # electrons                       302          :
          :  max. iterations                   250          :
          :  Hamiltonian                  GFN2-xTB          :
          :  restarted?                      false          :
          :  GBSA solvation                  false          :
          :  PC potential                    false          :
          :  electronic temp.          300.0000000     K    :
          :  accuracy                    1.0000000          :
          :  -> integral cutoff          0.2500000E+02      :
          :  -> integral neglect         0.1000000E-07      :
          :  -> SCF convergence          0.1000000E-05 Eh   :
          :  -> wf. convergence          0.1000000E-03 e    :
          :  Broyden damping             0.4000000          :
          :  net charge                          0          :
          :  unpaired electrons                  0          :
          ...................................................

 iter      E             dE          RMSdq      gap      omega  full diag
   1   -169.2142519 -0.169214E+03  0.376E+00    3.30       0.0  T
   2   -169.5302640 -0.316012E+00  0.214E+00    2.38       1.0  T
   3   -169.5424588 -0.121948E-01  0.110E+00    2.94       1.0  T
   4   -169.5489503 -0.649149E-02  0.357E-01    2.50       1.0  T
   5   -169.5608141 -0.118638E-01  0.106E-01    2.59       1.0  T
   6   -169.5612415 -0.427430E-03  0.514E-02    2.62       1.0  T
   7   -169.5613158 -0.742941E-04  0.237E-02    2.61       1.0  T
   8   -169.5613251 -0.935223E-05  0.849E-03    2.61       1.1  T
   9   -169.5613294 -0.423994E-05  0.365E-03    2.61       2.6  T
  10   -169.5613298 -0.378571E-06  0.139E-03    2.61       6.7  T
  11   -169.5613298 -0.461067E-07  0.683E-04    2.61      13.7  T
  12   -169.5613298 -0.162031E-07  0.240E-04    2.61      39.1  T

   *** convergence criteria satisfied after 12 iterations ***

         #    Occupation            Energy/Eh            Energy/eV
      -------------------------------------------------------------
         1        2.0000           -0.7298240             -19.8595
       ...           ...                  ...                  ...
       145        2.0000           -0.3938679             -10.7177
       146        2.0000           -0.3876459             -10.5484
       147        2.0000           -0.3820913             -10.3972
       148        2.0000           -0.3801691             -10.3449
       149        2.0000           -0.3757506             -10.2247
       150        2.0000           -0.3623924              -9.8612
       151        2.0000           -0.3554405              -9.6720 (HOMO)
       152                         -0.2595741              -7.0634 (LUMO)
       153                         -0.2415813              -6.5738
       154                         -0.2412165              -6.5638
       155                         -0.2372981              -6.4572
       156                         -0.2297869              -6.2528
       ...                                ...                  ...
       282                          0.8122989              22.1038
      -------------------------------------------------------------
                  HL-Gap            0.0958664 Eh            2.6087 eV
             Fermi-level           -0.3075073 Eh           -8.3677 eV

 SCC (total)                   0 d,  0 h,  0 min, 18.549 sec
 SCC setup                      ...        0 min,  0.043 sec (  0.232%)
 Dispersion                     ...        0 min,  0.197 sec (  1.062%)
 classical contributions        ...        0 min,  0.009 sec (  0.047%)
 integral evaluation            ...        0 min,  0.599 sec (  3.231%)
 iterations                     ...        0 min, 16.719 sec ( 90.131%)
 molecular gradient             ...        0 min,  0.964 sec (  5.199%)
 printout                       ...        0 min,  0.018 sec (  0.096%)

         :::::::::::::::::::::::::::::::::::::::::::::::::::::
         ::                     SUMMARY                     ::
         :::::::::::::::::::::::::::::::::::::::::::::::::::::
         :: total energy            -167.185486776099 Eh    ::
         :: gradient norm              0.416007055853 Eh/a0 ::
         :: HOMO-LUMO gap              2.608656745097 eV    ::
         ::.................................................::
         :: SCC energy              -169.554070505806 Eh    ::
         :: -> isotropic ES            0.236458507975 Eh    ::
         :: -> anisotropic ES          0.017795067102 Eh    ::
         :: -> anisotropic XC          0.075089192164 Eh    ::
         :: -> dispersion             -0.142037993034 Eh    ::
         :: repulsion energy           2.368583729706 Eh    ::
         :: add. restraining           0.000000000000 Eh    ::
         :: total charge              -0.000000000000 e     ::
         :::::::::::::::::::::::::::::::::::::::::::::::::::::

           -------------------------------------------------
          |                Property Printout                |
           -------------------------------------------------

    * Orbital Energies and Occupations

         #    Occupation            Energy/Eh            Energy/eV
      -------------------------------------------------------------
         1        2.0000           -0.7298240             -19.8595
       ...           ...                  ...                  ...
       139        2.0000           -0.4116322             -11.2011
       140        2.0000           -0.4082285             -11.1085
       141        2.0000           -0.4048822             -11.0174
       142        2.0000           -0.4020913             -10.9415
       143        2.0000           -0.3999902             -10.8843
       144        2.0000           -0.3965267             -10.7900
       145        2.0000           -0.3938679             -10.7177
       146        2.0000           -0.3876459             -10.5484
       147        2.0000           -0.3820913             -10.3972
       148        2.0000           -0.3801691             -10.3449
       149        2.0000           -0.3757506             -10.2247
       150        2.0000           -0.3623924              -9.8612
       151        2.0000           -0.3554405              -9.6720 (HOMO)
       152                         -0.2595741              -7.0634 (LUMO)
       153                         -0.2415813              -6.5738
       154                         -0.2412165              -6.5638
       155                         -0.2372981              -6.4572
       156                         -0.2297869              -6.2528
       157                         -0.2249508              -6.1212
       158                         -0.2226729              -6.0592
       159                         -0.2151393              -5.8542
       160                         -0.2038687              -5.5476
       161                         -0.2018668              -5.4931
       162                         -0.1966608              -5.3514
       ...                                ...                  ...
       282                          0.8122989              22.1038
      -------------------------------------------------------------
                  HL-Gap            0.0958664 Eh            2.6087 eV
             Fermi-level           -0.3075073 Eh           -8.3677 eV

     #   Z          covCN         q      C6AA      α(0)
     1   7 N        2.685    -0.238    26.219     7.605
     2   6 C        3.804     0.029    20.087     6.381
     3   6 C        2.760     0.300    21.911     7.665
     4   8 O        0.872    -0.400    21.682     6.243
     5   7 N        2.692    -0.214    25.667     7.524
     6   6 C        3.793     0.026    20.151     6.392
     7   6 C        2.756     0.273    22.382     7.747
     8   6 C        3.788     0.032    20.057     6.379
     9   8 O        0.858    -0.412    21.927     6.278
    10   7 N        2.687    -0.229    26.014     7.575
    11   6 C        3.825    -0.071    21.842     6.650
    12   6 C        2.737     0.261    22.599     7.783
    13   6 C        2.990     0.015    27.667     8.628
    14   6 C        3.781     0.032    20.055     6.380
    15   8 O        0.859    -0.392    21.520     6.220
    16   6 C        2.928    -0.050    29.244     8.869
    17   6 C        2.952    -0.035    28.864     8.812
    18   7 N        2.686    -0.236    26.167     7.597
    19   6 C        3.779    -0.069    21.841     6.658
    20   6 C        2.921    -0.041    29.010     8.833
    21   6 C        2.927    -0.018    28.458     8.748
    22   6 C        2.762     0.266    22.504     7.769
    23   6 C        3.850    -0.013    20.775     6.483
    24   6 C        2.924    -0.027    28.682     8.783
    25   6 C        3.797     0.029    20.097     6.383
    26   8 O        0.859    -0.364    20.982     6.141
    27   6 C        3.759    -0.114    22.736     6.798
    28   6 C        3.755    -0.118    22.824     6.812
    29   7 N        2.691    -0.214    25.665     7.524
    30   6 C        3.796    -0.067    21.787     6.646
    31   6 C        2.778     0.283    22.207     7.718
    32   6 C        2.963     0.011    27.764     8.643
    33   6 C        3.795     0.030    20.080     6.381
    34   8 O        0.859    -0.419    22.066     6.298
    35   6 C        2.957    -0.046    29.146     8.855
    36   6 C        2.938    -0.028    28.710     8.788
    37   7 N        2.691    -0.206    25.478     7.497
    38   6 C        3.816    -0.060    21.637     6.620
    39   6 C        2.910    -0.033    28.820     8.803
    40   6 C        2.918    -0.025    28.636     8.775
    41   6 C        2.762     0.281    22.246     7.724
    42   6 C        3.137     0.072    26.169     8.373
    43   6 C        2.922    -0.028    28.697     8.785
    44   8 O        0.864    -0.405    21.778     6.257
    45   7 N        1.908    -0.256    27.515     7.777
    46   6 C        2.987    -0.021    28.530     8.762
    47   6 C        3.060     0.092    25.903     8.346
    48   7 N        2.803    -0.141    24.052     7.284
    49   6 C        3.852    -0.019    20.874     6.498
    50   6 C        3.748    -0.122    22.899     6.825
    51   6 C        3.816    -0.065    21.730     6.635
    52   6 C        3.749    -0.101    22.499     6.765
    53   6 C        3.850    -0.021    20.908     6.504
    54   6 C        3.753    -0.121    22.886     6.822
    55   6 C        3.784    -0.050    21.491     6.603
    56   6 C        3.736    -0.107    22.636     6.790
    57   1 H        0.857     0.175     1.244     1.747
    58   1 H        0.925     0.060     2.196     2.317
    59   1 H        0.854     0.174     1.251     1.753
    60   1 H        0.922     0.072     2.066     2.248
    61   1 H        0.922     0.074     2.045     2.237
    62   1 H        0.862     0.171     1.266     1.763
    63   1 H        0.921     0.049     2.331     2.388
    64   1 H        0.929     0.066     2.125     2.280
    65   1 H        0.914     0.083     1.946     2.182
    66   1 H        0.927     0.035     2.517     2.481
    67   1 H        0.928     0.035     2.523     2.484
    68   1 H        0.862     0.165     1.301     1.787
    69   1 H        0.926     0.047     2.354     2.399
    70   1 H        0.894     0.043     2.420     2.434
    71   1 H        0.927     0.038     2.472     2.458
    72   1 H        0.923     0.033     2.540     2.492
    73   1 H        0.927     0.039     2.458     2.452
    74   1 H        0.920     0.033     2.546     2.496
    75   1 H        0.918     0.089     1.886     2.148
    76   1 H        0.925     0.045     2.382     2.413
    77   1 H        0.922     0.038     2.481     2.463
    78   1 H        0.928     0.039     2.461     2.453
    79   1 H        0.925     0.045     2.389     2.417
    80   1 H        0.926     0.037     2.495     2.470
    81   1 H        0.927     0.037     2.492     2.469
    82   1 H        0.861     0.227     0.977     1.549
    83   1 H        0.914     0.032     2.559     2.502
    84   1 H        0.921     0.040     2.449     2.447
    85   1 H        0.923     0.074     2.039     2.233
    86   1 H        0.927     0.023     2.694     2.567
    87   1 H        0.925     0.039     2.459     2.452
    88   1 H        0.858     0.176     1.237     1.743
    89   1 H        0.921     0.054     2.277     2.360
    90   1 H        0.929     0.062     2.179     2.308
    91   1 H        0.927     0.042     2.427     2.436
    92   1 H        0.920     0.039     2.469     2.457
    93   1 H        0.927     0.044     2.399     2.422
    94   1 H        0.928     0.047     2.360     2.402
    95   1 H        0.924     0.031     2.576     2.510
    96   1 H        0.862     0.170     1.271     1.766
    97   1 H        0.921     0.038     2.478     2.462
    98   1 H        0.924     0.040     2.454     2.450
    99   1 H        0.922     0.056     2.247     2.344
   100   1 H        0.928     0.038     2.477     2.461
   101   1 H        0.927     0.069     2.100     2.266
   102   1 H        0.925     0.042     2.417     2.431
   103   1 H        0.927     0.037     2.489     2.467
   104   1 H        0.921     0.033     2.545     2.495
   105   1 H        0.921     0.028     2.611     2.527
   106   1 H        0.924     0.050     2.321     2.382
   107   1 H        0.928     0.042     2.417     2.431
   108   1 H        0.927     0.058     2.217     2.328
   109   1 H        0.924     0.039     2.458     2.452
   110   1 H        0.919     0.040     2.446     2.446
   111   1 H        0.920     0.024     2.673     2.557
   112   1 H        0.929     0.044     2.392     2.419
   113   1 H        0.924     0.037     2.484     2.465
   114   1 H        0.916     0.031     2.580     2.512

 Mol. C6AA /au·bohr⁶  :     129312.996413
 Mol. C8AA /au·bohr⁸  :    2950399.737431
 Mol. α(0) /au        :        548.715270


Wiberg/Mayer (AO) data.
largest (>0.10) Wiberg bond orders for each atom

 ---------------------------------------------------------------------------
     #   Z sym  total        # sym  WBO       # sym  WBO       # sym  WBO
 ---------------------------------------------------------------------------
     1   7 N    3.314 --     7 C    1.170     2 C    0.969    57 H    0.926
                             9 O    0.168
     2   6 C    3.963 --    49 C    0.977     1 N    0.969    58 H    0.945
                             3 C    0.939
     3   6 C    3.950 --     4 O    1.740     5 N    1.192     2 C    0.939
     4   8 O    2.060 --     3 C    1.740     5 N    0.182
     5   7 N    3.366 --     3 C    1.192     6 C    0.983    59 H    0.910
                             4 O    0.182
     6   6 C    3.967 --     5 N    0.983    41 C    0.975    53 C    0.945
                            60 H    0.939
     7   6 C    3.937 --     9 O    1.728     1 N    1.170     8 C    0.945
     8   6 C    3.972 --    10 N    0.994    11 C    0.958     7 C    0.945
                            61 H    0.940
     9   8 O    2.050 --     7 C    1.728     1 N    0.168
    10   7 N    3.371 --    12 C    1.161     8 C    0.994    62 H    0.932
                            15 O    0.192
    11   6 C    3.990 --    13 C    1.014    64 H    0.964    63 H    0.964
                             8 C    0.958
    12   6 C    3.927 --    15 O    1.769    10 N    1.161    14 C    0.902
    13   6 C    3.991 --    17 C    1.483    16 C    1.338    11 C    1.014
                            24 C    0.111
    14   6 C    3.967 --    18 N    1.036    19 C    0.980    65 H    0.925
                            12 C    0.902
    15   8 O    2.080 --    12 C    1.769    10 N    0.192
    16   6 C    3.989 --    20 C    1.519    13 C    1.338    66 H    0.970
                            21 C    0.107
    17   6 C    3.994 --    13 C    1.483    21 C    1.381    67 H    0.965
                            20 C    0.108
    18   7 N    3.341 --    22 C    1.072    14 C    1.036    68 H    0.929
                            26 O    0.183
    19   6 C    3.990 --    23 C    0.991    14 C    0.980    69 H    0.975
                            70 H    0.970
    20   6 C    3.989 --    16 C    1.519    24 C    1.358    71 H    0.974
                            17 C    0.108
    21   6 C    3.992 --    24 C    1.512    17 C    1.381    72 H    0.965
                            16 C    0.107
    22   6 C    3.947 --    26 O    1.788    18 N    1.072    25 C    0.997
    23   6 C    3.994 --    27 C    1.020    28 C    0.998    19 C    0.991
                            73 H    0.967
    24   6 C    3.988 --    21 C    1.512    20 C    1.358    74 H    0.969
                            13 C    0.111
    25   6 C    3.977 --    22 C    0.997    30 C    0.979    29 N    0.971
                            75 H    0.914
    26   8 O    2.102 --    22 C    1.788    18 N    0.183
    27   6 C    3.991 --    23 C    1.020    78 H    0.983    77 H    0.983
                            76 H    0.974
    28   6 C    3.986 --    23 C    0.998    79 H    0.985    81 H    0.985
                            80 H    0.984
    29   7 N    3.367 --    31 C    1.215    25 C    0.971    82 H    0.892
                            34 O    0.173
    30   6 C    3.990 --    32 C    0.981    25 C    0.979    84 H    0.963
                            83 H    0.947
    31   6 C    3.949 --    34 O    1.714    29 N    1.215    33 C    0.938
    32   6 C    3.987 --    36 C    1.485    35 C    1.368    30 C    0.981
                            43 C    0.103
    33   6 C    3.967 --    37 N    1.019    38 C    0.959    31 C    0.938
                            85 H    0.922
    34   8 O    2.029 --    31 C    1.714    29 N    0.173
    35   6 C    3.988 --    39 C    1.478    32 C    1.368    86 H    0.967
                            40 C    0.120
    36   6 C    3.991 --    32 C    1.485    40 C    1.382    87 H    0.966
                            39 C    0.110
    37   7 N    3.395 --    41 C    1.175    33 C    1.019    88 H    0.916
                            44 O    0.194
    38   6 C    3.986 --    42 C    1.001    90 H    0.970    33 C    0.959
                            89 H    0.952
    39   6 C    3.990 --    35 C    1.478    43 C    1.397    91 H    0.970
                            36 C    0.110
    40   6 C    3.988 --    43 C    1.483    36 C    1.382    92 H    0.970
                            35 C    0.120
    41   6 C    3.954 --    44 O    1.729    37 N    1.175     6 C    0.975
    42   6 C    3.970 --    46 C    1.596    45 N    1.238    38 C    1.001
    43   6 C    3.987 --    40 C    1.483    39 C    1.397    93 H    0.971
                            32 C    0.103
    44   8 O    2.038 --    41 C    1.729    37 N    0.194
    45   7 N    3.026 --    47 C    1.593    42 C    1.238    48 N    0.109
    46   6 C    3.938 --    42 C    1.596    48 N    1.174    94 H    0.969
                            47 C    0.122
    47   6 C    3.956 --    45 N    1.593    48 N    1.221    95 H    0.964
                            46 C    0.122
    48   7 N    3.513 --    47 C    1.221    46 C    1.174    96 H    0.939
                            45 N    0.109
    49   6 C    3.988 --    50 C    0.998    51 C    0.989     2 C    0.977
                            97 H    0.961
    50   6 C    3.994 --    49 C    0.998   100 H    0.988    98 H    0.984
                            99 H    0.980
    51   6 C    3.991 --    52 C    1.030    49 C    0.989   101 H    0.969
                           102 H    0.969
    52   6 C    3.981 --    51 C    1.030   103 H    0.985   104 H    0.974
                           105 H    0.974
    53   6 C    3.988 --    55 C    1.017    54 C    0.996   106 H    0.965
                             6 C    0.945
    54   6 C    3.987 --    53 C    0.996   107 H    0.985   108 H    0.981
                           109 H    0.970
    55   6 C    3.996 --    53 C    1.017    56 C    1.002   111 H    0.976
                           110 H    0.973
    56   6 C    3.991 --    55 C    1.002   112 H    0.989   113 H    0.988
                           114 H    0.987
    57   1 H    0.969 --     1 N    0.926
    58   1 H    0.996 --     2 C    0.945
    59   1 H    0.970 --     5 N    0.910
    60   1 H    0.994 --     6 C    0.939
    61   1 H    0.994 --     8 C    0.940
    62   1 H    0.971 --    10 N    0.932
    63   1 H    0.997 --    11 C    0.964
    64   1 H    0.995 --    11 C    0.964
    65   1 H    0.993 --    14 C    0.925
    66   1 H    0.999 --    16 C    0.970
    67   1 H    0.999 --    17 C    0.965
    68   1 H    0.973 --    18 N    0.929
    69   1 H    0.998 --    19 C    0.975
    70   1 H    0.998 --    19 C    0.970
    71   1 H    0.998 --    20 C    0.974
    72   1 H    0.998 --    21 C    0.965
    73   1 H    0.998 --    23 C    0.967
    74   1 H    0.998 --    24 C    0.969
    75   1 H    0.991 --    25 C    0.914
    76   1 H    0.998 --    27 C    0.974
    77   1 H    0.998 --    27 C    0.983
    78   1 H    0.998 --    27 C    0.983
    79   1 H    0.997 --    28 C    0.985
    80   1 H    0.999 --    28 C    0.984
    81   1 H    0.999 --    28 C    0.985
    82   1 H    0.948 --    29 N    0.892
    83   1 H    0.998 --    30 C    0.947
    84   1 H    0.998 --    30 C    0.963
    85   1 H    0.994 --    33 C    0.922
    86   1 H    0.999 --    35 C    0.967
    87   1 H    0.998 --    36 C    0.966
    88   1 H    0.969 --    37 N    0.916
    89   1 H    0.997 --    38 C    0.952
    90   1 H    0.996 --    38 C    0.970
    91   1 H    0.998 --    39 C    0.970
    92   1 H    0.998 --    40 C    0.970
    93   1 H    0.997 --    43 C    0.971
    94   1 H    0.998 --    46 C    0.969
    95   1 H    0.999 --    47 C    0.964
    96   1 H    0.971 --    48 N    0.939
    97   1 H    0.998 --    49 C    0.961
    98   1 H    0.998 --    50 C    0.984
    99   1 H    0.997 --    50 C    0.980
   100   1 H    0.999 --    50 C    0.988
   101   1 H    0.995 --    51 C    0.969
   102   1 H    0.998 --    51 C    0.969
   103   1 H    0.999 --    52 C    0.985
   104   1 H    0.998 --    52 C    0.974
   105   1 H    0.999 --    52 C    0.974
   106   1 H    0.997 --    53 C    0.965
   107   1 H    0.998 --    54 C    0.985
   108   1 H    0.996 --    54 C    0.981
   109   1 H    0.998 --    54 C    0.970
   110   1 H    0.998 --    55 C    0.973
   111   1 H    0.999 --    55 C    0.976
   112   1 H    0.998 --    56 C    0.989
   113   1 H    0.998 --    56 C    0.988
   114   1 H    0.999 --    56 C    0.987
 ---------------------------------------------------------------------------

Topologies differ in total number of bonds
Writing topology from bond orders to xtbtopo.mol

molecular dipole:
                 x           y           z       tot (Debye)
 q only:       -1.741       1.076      -3.504
   full:       -2.237       1.403      -3.169      10.485
molecular quadrupole (traceless):
                xx          xy          yy          xz          yz          zz
 q only:        4.883      17.297       9.692      11.301       1.856     -14.575
  q+dip:       10.827      18.472       6.662      20.431      -1.773     -17.489
   full:        6.635      18.110       8.581      20.017      -0.889     -15.216


           -------------------------------------------------
          | TOTAL ENERGY             -167.185486776099 Eh   |
          | GRADIENT NORM               0.416007055853 Eh/α |
          | HOMO-LUMO GAP               2.608656745097 eV   |
           -------------------------------------------------

------------------------------------------------------------------------
 * finished run on 2026/05/23 at 12:25:16.184     
------------------------------------------------------------------------
 total:
 * wall-time:     0 d,  0 h,  0 min, 19.560 sec
 *  cpu-time:     0 d,  0 h,  0 min, 23.985 sec
 * ratio c/w:     1.226 speedup
 SCF:
 * wall-time:     0 d,  0 h,  0 min, 18.551 sec
 *  cpu-time:     0 d,  0 h,  0 min, 23.106 sec
 * ratio c/w:     1.246 speedup

normal termination of xtb
