77
pH=7.99 total_charge=0 partial_charge_sum=+0.000000 method=gasteiger energy=-388.18268300
N   1.76533127  2.65739672  0.16876990
C   0.81918141  3.60573313  0.79485401
C  -0.12456276  2.89801808  1.72788868
O  -0.29976391  3.31022888  2.87698729
N  -0.74869452  1.93864735  1.04431532
C  -1.55380344  0.87627413  1.67501899
C   2.45532726  1.72984633  0.89616979
C   3.35628117  0.87395978  0.09715526
O   2.10700595  1.33692818  2.01901787
N   2.50518996 -0.03042454 -0.65893665
C   4.24957614  1.60468034 -0.92606262
C   3.16169059 -1.21710033 -1.03587884
C   5.28488583  2.52033443 -0.22027660
C   2.33530108 -2.58664677 -1.12432787
O   4.32581120 -1.26944854 -1.27538537
O   4.89254088  3.50141608  0.52534966
N   6.58491387  2.17177034 -0.40778246
N   1.08324105 -2.37068078 -0.44361497
C   2.13698660 -2.94418834 -2.60241710
C   0.58078867 -3.15208540  0.50050180
C   1.25023579 -1.92582240 -3.43077405
C   3.47853874 -3.20100708 -3.37396071
C  -0.82886787 -2.80115448  0.96184434
O   1.20635467 -4.10674784  1.00867064
N  -1.02244413 -1.50078747  1.56951352
C  -1.96096929 -3.14394053 -0.10265802
C  -1.09816146 -0.35917206  0.93817457
C  -3.37071582 -3.12650774  0.46624355
O  -0.83023609 -0.26625212 -0.27075967
N  -3.82306938 -2.31298949  1.47872527
C  -4.44520826 -3.89246333 -0.00697147
C  -4.99872480 -2.73451422  1.78052488
N  -5.47153626 -3.62500211  0.82814659
C   0.03593381  4.28557523 -0.33370311
O  -0.96157173  5.15195622  0.28717462
C  -3.16898849  1.04916884  1.42714005
C  -3.53733269  2.25734550  2.34934686
C  -3.62107064  1.17074126  0.05270199
C  -5.22530231  0.97405666  0.05358188
H   1.83123328  2.64063856 -0.88114915
H   1.43949814  4.23810512  1.34504046
H  -0.28535347  1.58459931  0.16173283
H  -1.31695465  0.61962048  2.69474165
H   4.06893819  0.24549121  0.59470618
H   1.49365155  0.03853963 -0.58054126
H   3.68014353  2.42254626 -1.56669182
H   4.69365519  0.86056363 -1.66465963
H   2.90185167 -3.28446394 -0.47140469
H   7.29752638  2.90755064 -0.16798037
H   6.74558877  1.56788677 -1.21244014
H   0.54989029 -1.49249004 -0.63645703
H   1.56636115 -3.94288806 -2.67975666
H   1.15310904 -2.32756509 -4.43193431
H   0.28711354 -1.79952644 -3.12864720
H   1.78036029 -0.95258544 -3.42411401
H   3.33279898 -4.09581158 -3.92098330
H   4.33057034 -3.32817082 -2.60497128
H   3.87503381 -2.42180248 -3.98996085
H  -0.97135772 -3.49455168  1.83586424
H  -1.33592769 -1.45051764  2.51596251
H  -1.84900269 -4.24319917 -0.35640056
H  -1.81936488 -2.39536707 -0.93539169
H  -4.42026411 -4.84641864 -0.38634059
H  -5.72027045 -2.42422110  2.46824283
H  -6.33758007 -4.16949113  0.87585762
H  -0.64235987  3.59128357 -0.81728503
H   0.60380136  4.92478290 -1.10564525
H  -0.68541790  5.27953351  1.20069630
H  -3.60565965  0.19386391  1.98037063
H  -4.60737497  2.05108207  2.72718630
H  -2.95471507  2.61206584  3.22250149
H  -3.45107135  3.19869861  1.72271972
H  -3.24595420  2.00667197 -0.54003137
H  -3.42796927  0.23604399 -0.57745056
H  -5.45378970 -0.02732470  0.11538298
H  -5.62875000  1.45086512  0.96826251
H  -5.78364115  1.45789140 -0.84653829
