77
pH=7.99 total_charge=0 partial_charge_sum=+0.000000 method=gasteiger energy=-387.96393300
N   1.74790829  2.81959187  0.14547643
C   0.72756639  3.56140493  0.94695679
C  -0.25278090  2.73057028  1.88579412
O  -0.42601467  3.10530654  3.05464306
N  -0.81926821  1.72530823  1.16147749
C  -1.67439612  0.73251763  1.81692527
C   2.40909464  1.85912101  0.77199475
C   3.23879414  0.86843737 -0.04876788
O   2.49225773  1.78564369  1.98403142
N   2.38261443 -0.17940390 -0.55242768
C   4.07863781  1.69747149 -1.07589653
C   2.99125989 -1.25064227 -1.14332945
C   5.16835337  2.31108246 -0.13669527
C   2.25429383 -2.57836336 -1.33990389
O   4.17594849 -1.40886756 -1.30157411
O   4.88252659  3.08763175  0.80371563
N   6.45131926  1.99144746 -0.37029343
N   0.89366731 -2.72505113 -0.70498393
C   2.05524947 -2.86884016 -2.81260873
C   0.73229452 -3.08072038  0.53508941
C   1.11159579 -1.87772653 -3.56427876
C   3.44009304 -3.08707931 -3.60467814
C  -0.72205668 -3.00925940  1.02250851
O   1.63799284 -3.37852319  1.32751521
N  -1.05254808 -1.69846859  1.69651127
C  -1.79667752 -3.28234580 -0.01819014
C  -1.21939860 -0.55823265  0.99176485
C  -3.24794591 -3.19721842  0.53225759
O  -0.99018978 -0.41422295 -0.21552095
N  -3.67490146 -2.30651798  1.46912341
C  -4.33405892 -3.88393532  0.05756191
C  -5.02603409 -2.41354065  1.59991228
N  -5.44837787 -3.45755683  0.83648937
C  -0.17622304  4.36337059 -0.05823722
O  -1.25383840  5.09362990  0.56619854
C  -3.10762211  1.14003106  1.49278108
C  -3.19702814  2.56757312  1.94832647
C  -3.27504577  0.93587673  0.02523518
C  -4.71817943  1.45445639 -0.38123340
H   1.45012790  2.57247861 -0.77746568
H   1.41117352  4.12748386  1.53828425
H  -0.57933702  1.53350857  0.14139763
H  -1.31450573  0.63578143  2.84132995
H   3.98470228  0.46639483  0.46295032
H   1.40856803 -0.08819041 -0.45369528
H   3.42177574  2.55912193 -1.48786161
H   4.53356830  1.15408505 -1.93552225
H   2.93024574 -3.18431258 -0.77535476
H   7.18863847  2.18362102  0.34993501
H   6.61823793  1.34718905 -1.11062143
H   0.06613791 -2.69687594 -1.25231674
H   1.53523581 -3.82169903 -2.87164628
H   1.00148260 -2.08429060 -4.67532321
H   0.12502402 -1.93274501 -3.00356068
H   1.52488359 -0.83476062 -3.36143836
H   3.37756885 -3.24298845 -4.63341676
H   3.96760736 -3.88070822 -3.06121811
H   3.97800690 -2.15211893 -3.34837320
H  -0.83635500 -3.76615800  1.86129159
H  -1.29703944 -1.65797272  2.63151857
H  -1.73130564 -4.29588872 -0.46807523
H  -1.71725269 -2.67634999 -0.98999050
H  -4.35607892 -4.64604524 -0.80362593
H  -5.66531601 -1.82488900  2.19152902
H  -6.37731534 -3.51869554  0.48948753
H  -0.53833888  3.72590846 -0.89535513
H   0.29175644  5.22811744 -0.66315166
H  -0.99190797  5.57316930  1.37073985
H  -3.84325996  0.66493914  2.15979645
H  -4.17164129  3.02473109  1.87367162
H  -2.70369963  2.77416671  2.94241257
H  -2.66203661  3.12263521  1.25553605
H  -2.50136040  1.35378409 -0.61622367
H  -3.23302671 -0.14627340 -0.25415037
H  -5.49415019  1.13285796  0.28570424
H  -4.66638348  2.50402417 -0.52449326
H  -4.97103425  1.07504267 -1.44717399
