77
pH=7.99 total_charge=0 partial_charge_sum=+0.000000 method=gasteiger energy=-388.94049550
N   1.64935594  2.97258630  0.05328716
C   0.77681548  3.85377454  0.84734520
C  -0.30437247  3.03846818  1.54117338
O  -0.67496957  3.25236131  2.67997072
N  -0.93383716  1.95753197  0.87837251
C  -1.51547297  0.86478846  1.64114527
C   2.32661377  1.90490162  0.56702997
C   3.49682166  1.06669579 -0.03995528
O   1.74490736  1.40366600  1.56755353
N   2.77856869 -0.17096475 -0.48001782
C   4.26669433  1.78254739 -1.17287289
C   3.39664147 -1.31550389 -0.83078913
C   5.37769653  2.66573010 -0.50833363
C   2.43141705 -2.52947011 -0.96782868
O   4.58272030 -1.47311693 -1.01044853
O   5.13865576  3.46769555  0.43587913
N   6.61500442  2.28863975 -0.77993512
N   1.21250871 -2.18254637 -0.28654770
C   2.14318913 -2.92590839 -2.44887746
C   0.49015108 -3.06690752  0.35227489
C   1.43725952 -1.74409812 -3.09605217
C   3.35717345 -3.42620744 -3.16874514
C  -0.93759373 -2.78805550  0.84566162
O   0.77505720 -4.28483604  0.31473316
N  -1.16650131 -1.50642217  1.55388424
C  -2.00204075 -3.19639750 -0.21820199
C  -1.16059284 -0.38235939  0.83289570
C  -3.32852209 -3.43564876  0.43006565
O  -0.94829755 -0.38218890 -0.37286346
N  -3.67277539 -2.56810052  1.49863616
C  -4.35772280 -4.18531844  0.01065683
C  -4.93280157 -2.91348511  1.72648199
N  -5.41148786 -3.82440328  0.89048046
C   0.21321506  4.74571183 -0.21172644
O  -0.77090753  5.74397306  0.17688802
C  -3.08304232  0.89678753  1.95991690
C  -3.44036238  1.73284328  3.19626655
C  -3.82986540  1.30686390  0.59791462
C  -5.20181060  0.65025421  0.33247683
H   2.16201258  3.42639166 -0.72177784
H   1.33238125  4.41677854  1.54302730
H  -0.60492747  1.66587930 -0.06731844
H  -0.96381537  0.73772548  2.58713451
H   4.08302828  0.69957076  0.76649527
H   1.83673893 -0.14472685 -0.22773642
H   3.58415697  2.46379850 -1.78898041
H   4.83018683  1.14965754 -1.84323537
H   2.92112882 -3.39830791 -0.42332322
H   7.42010071  2.82623300 -0.47989024
H   6.80185567  1.90689330 -1.69477965
H   0.69116749 -1.35400336 -0.49443465
H   1.37481667 -3.73039525 -2.29244126
H   1.23324395 -2.06471778 -4.10168670
H   0.56086516 -1.37234277 -2.70275649
H   2.19593209 -1.01557939 -3.06736332
H   3.04270262 -3.52012877 -4.21320940
H   3.58818143 -4.50409612 -2.97504185
H   4.24605960 -2.77551323 -3.12598271
H  -1.02161889 -3.53904940  1.65056825
H  -1.56528219 -1.52797566  2.50649355
H  -1.73003495 -4.02455650 -0.93337546
H  -2.06026993 -2.33308016 -0.96342614
H  -4.43851959 -4.75926752 -0.83742724
H  -5.51564506 -2.42640856  2.52712369
H  -6.11591962 -4.40244498  1.20150752
H  -0.19918895  4.05018705 -0.92599806
H   1.11545834  5.20923819 -0.69164558
H  -1.38010350  5.13065886  0.70120962
H  -3.29727412 -0.06107049  2.41113895
H  -4.46055627  2.25846715  3.19869211
H  -3.37872003  1.07752147  4.11919003
H  -2.66960557  2.48472951  3.32744925
H  -3.97815964  2.37108715  0.55505665
H  -3.15192365  1.00303819 -0.27011818
H  -4.95571923 -0.38555605  0.29632578
H  -5.96360083  0.91769227  1.12225964
H  -5.55670582  1.03060679 -0.67768299
