77
pH=7.99 total_charge=0 partial_charge_sum=+0.000000 method=gasteiger energy=-387.84674550
N   1.54820498  2.45938818  0.27372815
C   0.86659465  3.32500608  1.17168159
C   0.01218301  2.53755058  2.04183399
O  -0.34290635  2.88407551  3.13115920
N  -0.58457599  1.59644718  1.31573926
C  -1.66417928  0.73140097  1.68778981
C   2.43141205  1.58265668  0.82028951
C   3.24923127  0.78784132 -0.15297962
O   2.48688368  1.30639183  1.97293055
N   2.37397195 -0.12934371 -0.78864117
C   4.10225088  1.79270255 -1.02800221
C   2.82972048 -1.39402103 -1.09168217
C   5.33549193  2.27046596 -0.24085557
C   1.89155433 -2.46691049 -1.51827658
O   4.03328380 -1.48216295 -1.24259425
O   5.21894365  3.33750023  0.24219962
N   6.36489590  1.37874803 -0.32208403
N   0.61835700 -2.55105219 -0.75993398
C   1.59109579 -2.40641553 -3.01897979
C   0.68258760 -2.92487022  0.62860652
C   0.94983832 -1.09038829 -3.38710316
C   2.79685420 -2.85429240 -3.76806176
C  -0.66031818 -3.01296384  1.32379109
O   1.69837840 -3.05106452  1.38668318
N  -1.04895497 -1.65013208  1.76392638
C  -1.76766324 -3.61792094  0.44552120
C  -1.10482151 -0.56803810  1.00997803
C  -3.20927757 -3.38101861  0.66699060
O  -0.75247686 -0.51128324 -0.16028130
N  -3.75181953 -2.44661386  1.37561313
C  -4.20771144 -4.10891810 -0.00619960
C  -5.03797829 -2.45113292  1.18100672
N  -5.36068918 -3.45887821  0.36215085
C  -0.11222813  4.36064280  0.42908666
O  -0.88394346  5.20549372  1.21503511
C  -3.07531560  1.23179788  1.27296943
C  -3.66571683  2.28239573  2.19217247
C  -3.08483623  1.44209356 -0.30531458
C  -4.28475298  2.20515701 -0.93355835
H   1.74864340  2.79072508 -0.67522884
H   1.62567784  3.92126013  1.76940383
H  -0.08587756  1.36006662  0.42844513
H  -1.55736355  0.46534854  2.75633551
H   3.99819673  0.47911354  0.60147723
H   1.40559127 -0.04425769 -0.50431716
H   3.50458768  2.69221657 -1.34773607
H   4.36526275  1.21463444 -1.99325462
H   2.56073535 -3.25778639 -1.35630602
H   7.13401296  1.63843651  0.31448939
H   5.95499252  0.41417015 -0.42038590
H  -0.20204109 -2.32450631 -1.27406896
H   0.74874609 -3.13525074 -3.25075480
H   0.67782334 -1.15319520 -4.43166179
H  -0.08367638 -1.00941632 -2.87807581
H   1.55575301 -0.21584593 -3.25992227
H   2.65693711 -2.71270219 -4.85808274
H   2.84176994 -3.94540848 -3.49540555
H   3.61919045 -2.31941819 -3.45132202
H  -0.46499793 -3.66594955  2.23846245
H  -1.26802915 -1.50951138  2.67443856
H  -1.44437531 -4.55070259  0.21174838
H  -1.65890867 -3.13835873 -0.51763471
H  -4.37959588 -5.10071625 -0.45435136
H  -5.79266115 -1.80251418  1.47186970
H  -6.31006306 -3.71708466  0.21908616
H  -0.71156269  3.76882369 -0.14795056
H   0.39614002  5.05228619 -0.28120598
H  -1.07154577  4.90134929  2.17709638
H  -3.69031516  0.36364331  1.49108825
H  -4.79079568  2.42934542  1.92333489
H  -3.58937494  2.07254592  3.27019254
H  -3.11228331  3.22600794  2.01729244
H  -2.21726291  2.09280744 -0.58269910
H  -2.94572088  0.43824008 -0.72466546
H  -5.26943283  1.77986053 -0.66333382
H  -4.23288079  3.28771286 -0.59907447
H  -4.20096179  2.30044439 -1.95187716
