77
pH=7.99 total_charge=0 partial_charge_sum=+0.000000 method=gasteiger energy=-389.21002675
N   2.04961411  2.62850682  0.68231850
C   1.08743382  3.53911005  1.43545725
C  -0.25717706  2.81251615  1.67991641
O  -0.67094766  2.88331698  2.82733786
N  -0.83088001  2.02447063  0.71898887
C  -1.89835152  1.06708319  0.95755430
C   2.61044690  1.61570451  1.48569353
C   3.41878231  0.61636918  0.63357984
O   2.33702337  1.42515206  2.64474747
N   2.49098743 -0.25445839 -0.11495769
C   4.54781626  1.25795965 -0.18483349
C   2.87107438 -1.51140638 -0.41300841
C   5.57057221  2.05861080  0.62718666
C   1.99414906 -2.49889434 -1.14606331
O   3.96903996 -1.92890538 -0.07359725
O   5.50990753  3.16793346  0.96954189
N   6.68532595  1.22662885  0.93634728
N   0.58633928 -2.42814893 -0.73698182
C   2.24479879 -2.22750869 -2.60164964
C   0.17231675 -2.85637725  0.52450849
C   1.78796376 -0.89345131 -3.12421109
C   3.75234043 -2.31537144 -2.92496085
C  -1.33470587 -2.73208183  0.67524816
O   0.90624367 -3.31931120  1.39056816
N  -1.76887961 -1.33858376  1.05888250
C  -2.17548161 -3.21263958 -0.51124209
C  -1.44643084 -0.23055941  0.26988289
C  -3.53166510 -3.51354024  0.05957301
O  -1.01933505 -0.20242891 -0.90115241
N  -4.52216227 -2.54067358  0.27397973
C  -3.93145431 -4.79171677  0.44207187
C  -5.47671707 -3.19910508  0.85442303
N  -5.21095846 -4.49354943  0.97824468
C   0.73697898  4.71769270  0.46357037
O  -0.48731826  5.51994810  0.86375161
C  -3.20817532  1.59266130  0.49760378
C  -3.55289831  2.75873254  1.49646095
C  -3.43407512  1.83133797 -1.02172362
C  -4.63610476  1.11469721 -1.59184069
H   2.62008038  3.04736623 -0.03753742
H   1.55988367  3.79719517  2.39836378
H  -0.44163258  2.07104802 -0.21084191
H  -1.88698353  1.02098172  2.09914626
H   3.90934608 -0.05509262  1.31224026
H   1.55853962  0.13759104 -0.21724324
H   4.21198506  1.97895702 -0.96782467
H   4.99216822  0.35947998 -0.54631636
H   2.53425013 -3.34951034 -0.87779586
H   7.24034800  1.67966726  1.69131361
H   6.43722120  0.26697207  1.01315394
H  -0.12923167 -1.76582201 -1.10986601
H   1.68980246 -3.02174322 -3.22179468
H   2.08663894 -0.63864984 -4.11740019
H   0.69256180 -0.78323369 -3.08031822
H   2.15630160 -0.01009361 -2.51151767
H   4.38303183 -2.99560015 -2.32067004
H   4.11574227 -1.28402790 -2.73678135
H   4.11425382 -2.35227422 -3.92921943
H  -1.42611033 -3.39782206  1.56000434
H  -1.64668519 -1.18107683  2.05141570
H  -1.80428872 -4.17151948 -0.91468481
H  -2.16284591 -2.40867379 -1.30000216
H  -3.57746289 -5.83046946  0.41957719
H  -6.32977014 -2.74144180  1.33698479
H  -5.80024940 -5.16878915  1.39067941
H   0.63749119  4.20425240 -0.47825231
H   1.59337254  5.32393194  0.46748361
H  -1.23170735  5.15728006  0.35125183
H  -3.83350016  0.74307104  0.85647732
H  -4.57654699  3.10131641  1.26694278
H  -3.55969097  2.22110735  2.45073344
H  -2.81877722  3.51745877  1.48793880
H  -3.64390880  2.97301393 -1.04291993
H  -2.52114566  1.77404746 -1.62111095
H  -4.94414860  0.24971579 -0.91190629
H  -5.51120950  1.72469508 -1.75999819
H  -4.41348356  0.64200611 -2.53768107
