77
pH=7.99 total_charge=0 partial_charge_sum=+0.000000 method=gasteiger energy=-388.86237050
N   1.72851534  2.82455895  0.11127809
C   0.82874214  3.74693766  0.79907939
C  -0.31190854  2.98619505  1.63171241
O  -0.54392891  3.37368490  2.75949265
N  -1.10738464  2.07938248  1.00566708
C  -1.62806758  0.83962409  1.63856703
C   2.33588356  1.79031430  0.77092197
C   3.39869033  1.04071348 -0.01944763
O   1.96551841  1.31492691  1.84596437
N   2.68879357 -0.10703327 -0.66729467
C   4.37327101  1.72252377 -1.02901232
C   3.45846361 -1.29155404 -0.98022938
C   5.34690566  2.55007761 -0.33636796
C   2.46638245 -2.50602819 -1.00050671
O   4.64774893 -1.38304944 -1.09820008
O   4.91981871  3.41755423  0.40698246
N   6.73819026  2.39467006 -0.64880760
N   1.14219215 -2.32098115 -0.26967425
C   2.13095047 -2.97487781 -2.51173211
C   0.54050878 -3.37931712  0.47210451
C   1.35115761 -1.93187779 -3.30089604
C   3.46021965 -3.35714948 -3.34471507
C  -0.83821375 -2.90325317  0.91421216
O   0.92867405 -4.53151524  0.66694382
N  -0.98302004 -1.52474816  1.48784032
C  -1.94697951 -3.06860218 -0.13962390
C  -1.18153648 -0.37836756  0.79381019
C  -3.35642229 -3.14117074  0.44378170
O  -1.02068576 -0.26676613 -0.42871193
N  -3.80338355 -2.32856148  1.51337434
C  -4.33684710 -3.94417713  0.03760133
C  -4.94980506 -2.79759101  1.81008067
N  -5.35084640 -3.84706527  0.99655795
C   0.14778104  4.57989978 -0.31019228
O  -0.91396221  5.45542180  0.15722628
C  -3.20126320  1.02089765  1.84933248
C  -3.58837237  2.09296966  2.83439061
C  -3.83023731  1.29037714  0.36726954
C  -5.18796618  0.81958253  0.12634630
H   2.38046342  3.31862476 -0.34726697
H   1.32435021  4.41593419  1.49558246
H  -0.71002568  1.94053848  0.11333313
H  -1.19791418  0.89374568  2.65233947
H   3.99795403  0.69992104  0.81062804
H   1.71648914 -0.18122708 -0.60532185
H   3.75267000  2.28795880 -1.66689060
H   4.75927350  0.85550954 -1.58891941
H   3.02648348 -3.38974935 -0.57895113
H   7.50838158  2.84535792 -0.17066568
H   7.00309480  1.46228375 -0.99306567
H   0.41455859 -1.88334012 -0.87937156
H   1.71447329 -3.99320182 -2.46711761
H   0.94783590 -2.38190477 -4.17473889
H   0.56993028 -1.30487928 -2.75558536
H   2.08377198 -1.33164864 -3.77792008
H   3.04503630 -3.70660407 -4.29418511
H   3.96847249 -4.19827883 -2.84489093
H   4.27790863 -2.63145732 -3.56901938
H  -1.18744449 -3.58011915  1.71579631
H  -1.26666697 -1.49032313  2.47234066
H  -1.73272007 -3.91201157 -0.76681938
H  -1.96585508 -2.16958773 -0.72444287
H  -4.35443078 -4.90392855 -0.52359344
H  -5.61417427 -2.36615956  2.48994564
H  -6.32401075 -3.87484006  0.75782160
H  -0.21079363  3.89969631 -1.10395423
H   0.95541522  5.15997524 -0.67163646
H  -0.98240384  5.27065345  1.13570438
H  -3.57176636  0.04690802  2.14633602
H  -4.59859585  1.93543027  3.05832884
H  -2.96931834  1.99408714  3.70199153
H  -3.45334007  3.21213185  2.49773602
H  -3.81202467  2.39196617  0.23928554
H  -3.14476183  0.86205142 -0.38223607
H  -5.18765974 -0.34535151  0.28298071
H  -6.04684887  1.10228947  0.70188582
H  -5.47955323  0.90456401 -0.92007502
