77
pH=7.99 total_charge=0 partial_charge_sum=+0.000000 method=gasteiger energy=-389.12018300
N   1.82908706  2.34359019  0.65514235
C   1.06463141  3.44862065  1.15001188
C  -0.38179530  3.22977224  1.42310127
O  -1.02117123  4.02682766  2.10277389
N  -0.94578111  2.18924619  0.80169209
C  -1.69766471  1.05333462  1.34865791
C   2.26382403  1.26211084  1.34888478
C   3.28773416  0.35219809  0.73911924
O   1.71450282  0.98204076  2.40684331
N   2.48486760 -0.57187407 -0.07689274
C   4.26527775  1.06106135 -0.16284805
C   3.04802803 -1.62450351 -0.73079210
C   5.51394886  1.83965017  0.40301526
C   2.03462500 -2.62872880 -1.42653406
O   4.27871577 -1.88380244 -0.82134952
O   5.35238494  3.04813833  0.57044170
N   6.77315270  1.16674467  0.53057361
N   0.67845816 -2.46622770 -0.98304254
C   2.05529444 -2.31398729 -2.99427289
C   0.23678652 -2.99793708  0.22245210
C   2.07167829 -0.77992302 -3.11135389
C   3.29372877 -2.86804062 -3.78433304
C  -1.18735260 -2.68946505  0.67108875
O   0.94731020 -3.65600265  0.93503667
N  -1.23268537 -1.35683675  1.29988554
C  -2.33060255 -2.94976661 -0.40738255
C  -1.15265772 -0.22968392  0.65050220
C  -3.56001716 -3.04048732  0.33715980
O  -0.78369488 -0.18523660 -0.49415765
N  -4.07195902 -1.98459223  1.06254101
C  -4.44289651 -4.08463400  0.41943000
C  -5.23812171 -2.32814433  1.55909385
N  -5.41464577 -3.66908054  1.31966324
C   1.30309740  4.56233910  0.11309592
O   0.37910526  5.67329549  0.18245614
C  -3.23579165  1.14753834  1.16210698
C  -3.74457363  2.15744597  2.15509574
C  -3.54654962  1.31743089 -0.34022331
C  -4.82184007  0.80309702 -0.81223416
H   2.04397390  2.20024929 -0.27030275
H   1.53140579  3.86322714  2.06060150
H  -0.28646649  1.81324492  0.09389657
H  -1.60406620  0.91180171  2.44968612
H   3.81092988 -0.29175815  1.42026388
H   1.53136508 -0.63234448  0.12663875
H   3.88313292  1.94751670 -0.72280253
H   4.60859571  0.29308571 -0.89560313
H   2.32587895 -3.62223718 -1.15364496
H   7.62614426  1.61498821  0.84052447
H   6.72333459  0.19280768  0.40871069
H   0.01757077 -1.85347053 -1.47675195
H   1.11094585 -2.70713183 -3.39307855
H   1.99987850 -0.64686313 -4.17644431
H   1.28867947 -0.15696562 -2.55768497
H   3.12547265 -0.35381736 -2.79985543
H   3.12394937 -3.87530316 -4.14772036
H   4.04555307 -2.83037190 -3.04945780
H   3.43489095 -2.27810252 -4.70122009
H  -1.45206007 -3.40881727  1.45577640
H  -1.59325149 -1.34092660  2.22399599
H  -2.15072438 -3.81667062 -0.97961512
H  -2.44827560 -2.06985925 -1.05384462
H  -4.35669724 -5.11067630  0.30010143
H  -6.02235598 -1.68660280  1.85393935
H  -6.20107223 -4.32145357  1.52110745
H   1.38139579  4.19228973 -0.91390863
H   2.38520643  4.85777100  0.37241410
H  -0.12477467  5.45797980  0.94004321
H  -3.49088480  0.10909992  1.41841243
H  -4.70460547  2.49524349  1.79691236
H  -4.05736177  1.63668482  3.07778168
H  -3.05863170  2.98220009  2.26228497
H  -3.55032463  2.38669466 -0.47597399
H  -2.74482909  0.83604366 -0.88984211
H  -4.90682988 -0.24298668 -1.09404247
H  -5.68626363  1.17036442 -0.30306181
H  -4.99222876  1.24251087 -1.82047768
