77
pH=7.99 total_charge=0 partial_charge_sum=+0.000000 method=gasteiger energy=-390.64362050
N   1.85355697  2.68175668  0.73242626 -0.34047096
C   0.93396999  3.63983064  1.35265718  0.13097083
C  -0.33634841  2.93094816  1.73518810  0.24513540
O  -0.77461799  3.03440285  2.91287440 -0.27260140
N  -1.03499438  2.13460170  0.76705443 -0.34218304
C  -1.99465782  1.08776158  1.14145965  0.11027253
C   2.57293834  1.71218076  1.51184081  0.24333264
C   3.42031988  0.65253767  0.84857315  0.11647714
O   2.48476410  1.72525923  2.77004333 -0.27268600
N   2.56668969 -0.29896179  0.13032303 -0.34199424
C   4.46223635  1.25500398 -0.11284710  0.05564543
C   3.00604367 -1.63503333 -0.16733891  0.24300682
C   5.40697745  2.17718162  0.60125177  0.21952925
C   2.19282433 -2.54892502 -1.05793845  0.11001880
O   4.10213853 -2.05482918  0.29476730 -0.27269246
O   5.23061611  3.42338629  0.54363466 -0.27526757
N   6.48292379  1.64920278  1.37626619 -0.36959816
N   0.75660585 -2.44257666 -0.76343417 -0.34226129
C   2.47936073 -2.30732098 -2.56870710 -0.01760765
C   0.20948355 -2.77898543  0.52497336  0.24314410
C   2.20834693 -0.86069089 -3.01789225 -0.06029356
C   3.91280422 -2.71431220 -2.94143947 -0.06029356
C  -1.28052210 -2.76623777  0.79188112  0.11332023
O   0.98568580 -3.06585887  1.47687189 -0.27268951
N  -1.71897936 -1.44651633  1.26443755 -0.34212372
C  -2.13000752 -3.25585516 -0.39797586  0.02063095
C  -1.59132529 -0.22434193  0.51716958  0.24301563
C  -3.54325296 -3.51786292  0.02891610  0.06067665
O  -1.15306257 -0.24121264 -0.66414570 -0.27269227
N  -4.50413453 -2.57368975  0.07741925 -0.24192954
C  -4.03317114 -4.70932175  0.51526216  0.02363101
C  -5.57411465 -3.22535139  0.57904231  0.09225697
N  -5.31680133 -4.51825009  0.85359861 -0.35090330
C   0.64608131  4.80842234  0.39576184  0.07244091
O  -0.20727038  5.74545608  0.99693701 -0.39367907
C  -3.45538036  1.48872313  0.78569979 -0.01502634
C  -3.86789065  2.73597433  1.58499131 -0.06003759
C  -3.70584961  1.71616421 -0.73462646 -0.05109903
C  -4.31817698  0.49443610 -1.42047926 -0.06503680
H   1.89722104  2.62415234 -0.31005507  0.16396780
H   1.41495724  4.06222355  2.26362053  0.06571339
H  -0.76908713  2.24385945 -0.23706002  0.16389356
H  -1.95248662  0.93880846  2.24327574  0.06350407
H   3.96481689  0.10554884  1.65169602  0.06376307
H   1.64825828  0.02531737 -0.24864224  0.16389751
H   3.96234818  1.79520687 -0.94491119  0.03937510
H   5.05398877  0.43520492 -0.57402713  0.03937510
H   2.49085072 -3.59741295 -0.82996268  0.06349335
H   7.13120233  2.29087616  1.88431047  0.15910138
H   6.63144566  0.61806068  1.44689352  0.15910138
H   0.10066153 -2.24298867 -1.54903642  0.16389202
H   1.79730699 -2.96904747 -3.14825455  0.03234949
H   2.29145189 -0.78825653 -4.12322939  0.02339914
H   1.18531783 -0.53919623 -2.73361195  0.02339914
H   2.94370030 -0.15970057 -2.57002717  0.02339914
H   4.10325378 -3.76880655 -2.64892317  0.02339914
H   4.65516246 -2.06049207 -2.43607185  0.02339914
H   4.05933331 -2.63118286 -4.03959326  0.02339914
H  -1.45028127 -3.49442652  1.61859132  0.06363435
H  -2.13022303 -1.39582125  2.22396031  0.16389499
H  -1.69651633 -4.19713536 -0.80145988  0.03595049
H  -2.14342895 -2.51266070 -1.22058152  0.03595049
H  -3.49440863 -5.64133978  0.62628599  0.08355648
H  -6.53317437 -2.75497278  0.75085058  0.10408786
H  -5.97494392 -5.22144656  1.25606676  0.16690687
H   0.16612526  4.43693323 -0.53440949  0.05911453
H   1.60308026  5.29758095  0.10248289  0.05911453
H   0.34072393  6.24798146  1.65485558  0.21016514
H  -4.11878554  0.66804629  1.14283100  0.03262469
H  -4.94898638  2.94491985  1.43643361  0.02340918
H  -3.70077860  2.57519833  2.67147402  0.02340918
H  -3.28570521  3.62386328  1.25744098  0.02340918
H  -4.41539444  2.55867354 -0.89006659  0.02673565
H  -2.77378886  1.99648685 -1.26492942  0.02673565
H  -3.63910730 -0.37762172 -1.36157840  0.02304679
H  -5.28957236  0.23400158 -0.94884341  0.02304679
H  -4.49834726  0.72246854 -2.49216183  0.02304679
