      -----------------------------------------------------------      
     |                   =====================                   |     
     |                           x T B                           |     
     |                   =====================                   |     
     |                         S. Grimme                         |     
     |          Mulliken Center for Theoretical Chemistry        |     
     |                    University of Bonn                     |     
      -----------------------------------------------------------      

   * xtb version 6.7.1 (26dd68d) compiled by 'froitzheim@fs7' on 2026-05-14

   xtb is free software: you can redistribute it and/or modify it under
   the terms of the GNU Lesser General Public License as published by
   the Free Software Foundation, either version 3 of the License, or
   (at your option) any later version.
   
   xtb is distributed in the hope that it will be useful,
   but WITHOUT ANY WARRANTY; without even the implied warranty of
   MERCHANTABILITY or FITNESS FOR A PARTICULAR PURPOSE.  See the
   GNU Lesser General Public License for more details.
   
   Cite this work as:
   * C. Bannwarth, E. Caldeweyher, S. Ehlert, A. Hansen, P. Pracht,
     J. Seibert, S. Spicher, S. Grimme, WIREs Comput. Mol. Sci., 2020, 11,
     e01493. DOI: 10.1002/wcms.1493
   
   for g-xTB:
   * T. Froitzheim, M. Müller, A. Hansen, S. Grimme, ChemRxiv, 2025, preprint.
     DOI: 10.26434/chemrxiv-2025-bjxv
   for GFN2-xTB:
   * C. Bannwarth, S. Ehlert and S. Grimme., J. Chem. Theory Comput., 2019,
     15, 1652-1671. DOI: 10.1021/acs.jctc.8b01176
   for GFN1-xTB:
   * S. Grimme, C. Bannwarth, P. Shushkov, J. Chem. Theory Comput., 2017,
     13, 1989-2009. DOI: 10.1021/acs.jctc.7b00118
   for GFN0-xTB:
   * P. Pracht, E. Caldeweyher, S. Ehlert, S. Grimme, ChemRxiv, 2019, preprint.
     DOI: 10.26434/chemrxiv.8326202.v1
   for GFN-FF:
   * S. Spicher and S. Grimme, Angew. Chem. Int. Ed., 2020, 59, 15665-15673.
     DOI: 10.1002/anie.202004239
   
   for ALPB and GBSA implicit solvation:
   * S. Ehlert, M. Stahn, S. Spicher, S. Grimme, J. Chem. Theory Comput.,
     2021, 17, 4250-4261. DOI: 10.1021/acs.jctc.1c00471
   
   for ddCOSMO and CPCM-X implicit solvation:
   * M. Stahn, S. Ehlert, S. Grimme, J. Phys. Chem. A,
     2023, XX, XXXX-XXXX. DOI: 10.1021/acs.jpca.3c04382
   
   for DFT-D4:
   * E. Caldeweyher, C. Bannwarth and S. Grimme, J. Chem. Phys., 2017,
     147, 034112. DOI: 10.1063/1.4993215
   * E. Caldeweyher, S. Ehlert, A. Hansen, H. Neugebauer, S. Spicher,
     C. Bannwarth and S. Grimme, J. Chem. Phys., 2019, 150, 154122.
     DOI: 10.1063/1.5090222
   * E. Caldeweyher, J.-M. Mewes, S. Ehlert and S. Grimme, Phys. Chem. Chem. Phys.
     2020, 22, 8499-8512. DOI: 10.1039/D0CP00502A
   
   for sTDA-xTB:
   * S. Grimme and C. Bannwarth, J. Chem. Phys., 2016, 145, 054103.
     DOI: 10.1063/1.4959605
   
   in the mass-spec context:
   * V. Asgeirsson, C. Bauer and S. Grimme, Chem. Sci., 2017, 8, 4879.
     DOI: 10.1039/c7sc00601b
   * J. Koopman and S. Grimme, ACS Omega 2019, 4, 12, 15120-15133.
     DOI: 10.1021/acsomega.9b02011
   
   for metadynamics refer to:
   * S. Grimme, J. Chem. Theory Comput., 2019, 155, 2847-2862
     DOI: 10.1021/acs.jctc.9b00143
   
   for SPH calculations refer to:
   * S. Spicher and S. Grimme, J. Chem. Theory Comput., 2021, 17, 1701-1714
     DOI: 10.1021/acs.jctc.0c01306
   
   for ONIOM refer to:
   * C. Plett, A. Katbashev, S. Ehlert, S. Grimme, M. Bursch,
     Phys. Chem. Chem. Phys., 2023, 25, 17860-17868. DOI: 10.1039/D3CP02178E
   
   for DIPRO refer to:
   * J. Kohn, N. Gildemeister, S. Grimme, D. Fazzi, A. Hansen,
     J. Chem. Phys. 159, 144106 (2023). DOI: 10.1063/5.0167484
   
   for PTB refer to:
   * S. Grimme, M. Mueller, A. Hansen, J. Chem. Phys., 2023, 158, 124111.
     DOI: 10.1063/5.0137838
   
   with help from (in alphabetical order)
   P. Atkinson, C. Bannwarth, F. Bohle, G. Brandenburg, E. Caldeweyher,
   M. Checinski, S. Dohm, S. Ehlert, S. Ehrlich, M. Friede, T. Froitzheim,
   I. Gerasimov, C. Hölzer, A. Katbashev, J. Kohn, J. Koopman, C. Lavigne,
   S. Lehtola, F. März, M. Müller, F. Musil, H. Neugebauer, J. Pisarek,
   C. Plett, P. Pracht, F. Pultar, J. Seibert, P. Shushkov, S. Spicher,
   M. Stahn, M. Steiner, T. Strunk, J. Stückrath, T. Rose, and J. Unsleber
   
 * started run on 2026/05/23 at 12:44:33.387     
   ID    Z sym.   atoms
    1    7 N      1, 5, 10, 17, 22, 26, 27, 33, 41
    2    6 C      2, 3, 6-8, 11-14, 16, 18-21, 23, 28-30, 34-39
    3    8 O      4, 9, 15, 24, 25, 31, 32, 40
    4    1 H      42-82

           -------------------------------------------------
          |                Calculation Setup                |
           -------------------------------------------------

          program call               : /home/xchen/software/xtb-6.7.1-gxtb/bin/xtb /home/xchen/Test/benchmark/md_sampled/09_5_0584_0/snap_0163.xyz --charge 0 --gxtb --norestart
          coordinate file            : /home/xchen/Test/benchmark/md_sampled/09_5_0584_0/snap_0163.xyz
          omp threads                :                    48

core increment energy         -1.8448408193529E+03 Eh
dispersion energy              1.6009155956307E-02 Eh
molecular charge               0.0000000000000E+00 e
number of electrons            2.2999999999795E+02 e
number of unpaired electrons   0.0000000000000E+00 e
wavefunction                   restricted
integral cutoff                2.6907767250513E+01 bohr
energy convergence             1.0000000000000E-06 Eh
density convergence            2.0000000000000E-05 e

------------------------------------------------------------
  cycle        total energy    energy error   density error
------------------------------------------------------------
      1     -2032.839351320  -1.8801454E+02   0.0000000E+00
      2     -2033.177567082  -3.3821576E-01   2.2246905E-02
      3     -2033.400656751  -2.2308967E-01   1.7835931E-02
      4     -2033.890091744  -4.8943499E-01   1.4298955E-02
      5     -2033.897758682  -7.6669385E-03   1.1300660E-03
      6     -2033.898397629  -6.3894650E-04   2.6489578E-04
      7     -2033.898455395  -5.7766564E-05   8.4931383E-05
      8     -2033.898460080  -4.6853125E-06   2.0328228E-05
      9     -2033.898460631  -5.5011159E-07   4.2457871E-06
------------------------------------------------------------

electronic energy             -1.8907365043356E+02 Eh
total energy                  -2.0338984606305E+03 Eh

Post processing:
 | Mayer-Wiberg bond orders
 | Molecular Multipole Moments

 total:                                  14.016 sec
 - increment                              0.000 sec (  0%)
 - repulsion                              0.017 sec (  0%)
 - dispersion                             0.323 sec (  2%)
 - coulomb                                0.134 sec (  0%)
 - exchange                               0.007 sec (  0%)
 - hamiltonian                            0.802 sec (  5%)
 - acp                                    0.319 sec (  2%)
 - spin polarization                      0.000 sec (  0%)
 - post processing                        0.039 sec (  0%)
 - scc                                   10.190 sec ( 72%)
 - coulomb gradient                       0.173 sec (  1%)
 - dispersion gradient                    0.315 sec (  2%)
 - exchange gradient                      0.602 sec (  4%)
 - repulsion gradient                     0.042 sec (  0%)
 - acp gradient                           0.300 sec (  2%)
 - hamiltonian gradient                   0.748 sec (  5%)
 - gradient                               2.179 sec ( 15%)

         :::::::::::::::::::::::::::::::::::::::::::::::::::::
         ::                     SUMMARY                     ::
         :::::::::::::::::::::::::::::::::::::::::::::::::::::
         :: total energy           -2033.898460630502 Eh    ::
         :: gradient norm              0.365180723807 Eh/a0 ::
         :: HOMO-LUMO gap              8.957795367896 eV    ::
         ::.................................................::
         :: add. restraining           0.000000000000 Eh    ::
         :: total charge              -0.000000000000 e     ::
         :::::::::::::::::::::::::::::::::::::::::::::::::::::

           -------------------------------------------------
          |                Property Printout                |
           -------------------------------------------------

    * Orbital Energies and Occupations
------------------------------------------------------------------
      #    Occupation            Energy/Eh            Energy/eV
------------------------------------------------------------------
      1        2.0000           -1.3593763             -36.9905
    ...           ...                  ...                  ...
    103        2.0000           -0.3896886             -10.6040
    104        2.0000           -0.3878614             -10.5542
    105        2.0000           -0.3848847             -10.4732
    106        2.0000           -0.3825129             -10.4087
    107        2.0000           -0.3783237             -10.2947
    108        2.0000           -0.3746232             -10.1940
    109        2.0000           -0.3696720             -10.0593
    110        2.0000           -0.3614958              -9.8368
    111        2.0000           -0.3601976              -9.8015
    112        2.0000           -0.3590728              -9.7709
    113        2.0000           -0.3579855              -9.7413
    114        2.0000           -0.3524614              -9.5910
    115        2.0000           -0.3449862              -9.3876 (HOMO)
    116                         -0.0157933              -0.4298 (LUMO)
    117                          0.0042258               0.1150
    118                          0.0118203               0.3216
    119                          0.0157989               0.4299
    120                          0.0251484               0.6843
    121                          0.0316242               0.8605
    122                          0.0382680               1.0413
    123                          0.0457718               1.2455
    124                          0.1117081               3.0397
    125                          0.1409866               3.8364
    126                          0.1755587               4.7772
    ...                                ...                  ...
    205                          0.7185760              19.5534
------------------------------------------------------------------
               HL-Gap            0.3291929 Eh            8.9578 eV
------------------------------------------------------------------

Atomic charges and shell populations (in atomic units):
------------------------------------------------------
     #    Z                q          p(s)       p(p)
------------------------------------------------------
     1    7 N      -0.317999      1.343231   3.974767
     2    6 C       0.019333      1.105872   2.874795
     3    6 C       0.410158      1.115159   2.474683
     4    8 O      -0.586048      1.869967   4.716081
     5    7 N      -0.302432      1.382025   3.920407
     6    6 C       0.024547      1.117760   2.857693
     7    6 C       0.415713      1.091832   2.492455
     8    6 C       0.011590      1.112328   2.876081
     9    8 O      -0.549480      1.855361   4.694120
    10    7 N      -0.367283      1.367493   3.999790
    11    6 C      -0.164235      1.161197   3.003037
    12    6 C       0.414009      1.103082   2.482909
    13    6 C      -0.192004      1.164607   3.027396
    14    6 C       0.011581      1.098218   2.890201
    15    8 O      -0.476017      1.854570   4.621448
    16    6 C      -0.180269      1.151009   3.029260
    17    7 N      -0.288161      1.333551   3.954610
    18    6 C      -0.205488      1.174076   3.031412
    19    6 C      -0.101363      1.109835   2.991527
    20    6 C       0.421067      1.120907   2.458026
    21    6 C       0.400231      1.111738   2.488031
    22    7 N      -0.499685      1.478744   4.020941
    23    6 C       0.010454      1.132095   2.857451
    24    8 O      -0.540893      1.849597   4.691296
    25    8 O      -0.522413      1.858510   4.663903
    26    7 N      -0.429563      1.442621   3.986942
    27    7 N      -0.362301      1.404299   3.958002
    28    6 C      -0.211032      1.152689   3.058343
    29    6 C       0.411993      1.107192   2.480816
    30    6 C       0.387810      1.112012   2.500178
    31    8 O      -0.514292      1.856723   4.657569
    32    8 O      -0.544169      1.859020   4.685149
    33    7 N      -0.418981      1.394828   4.024152
    34    6 C      -0.118635      1.138493   2.980143
    35    6 C      -0.220678      1.176778   3.043900
    36    6 C      -0.281622      1.162271   3.119350
    37    6 C      -0.150607      1.157824   2.992783
    38    6 C      -0.208098      1.164487   3.043611
    39    6 C       0.401559      1.106289   2.492152
    40    8 O      -0.522241      1.852833   4.669409
    41    7 N      -0.446424      1.374466   4.071959
    42    1 H       0.296536      0.703464
    43    1 H       0.106228      0.893772
    44    1 H       0.268089      0.731911
    45    1 H       0.125359      0.874641
    46    1 H       0.126561      0.873439
    47    1 H       0.255663      0.744337
    48    1 H       0.094774      0.905226
    49    1 H       0.124876      0.875124
    50    1 H       0.107026      0.892974
    51    1 H       0.083759      0.916241
    52    1 H       0.137278      0.862722
    53    1 H       0.083272      0.916728
    54    1 H       0.068137      0.931863
    55    1 H       0.288170      0.711830
    56    1 H       0.136512      0.863488
    57    1 H       0.087378      0.912622
    58    1 H       0.095473      0.904527
    59    1 H       0.105982      0.894018
    60    1 H       0.200133      0.799867
    61    1 H       0.221226      0.778774
    62    1 H       0.154092      0.845908
    63    1 H       0.252090      0.747910
    64    1 H       0.234020      0.765980
    65    1 H       0.296290      0.703710
    66    1 H       0.113513      0.886487
    67    1 H       0.143024      0.856976
    68    1 H       0.248156      0.751844
    69    1 H       0.265513      0.734487
    70    1 H       0.135529      0.864471
    71    1 H       0.097766      0.902234
    72    1 H       0.073554      0.926446
    73    1 H       0.065772      0.934228
    74    1 H       0.101696      0.898304
    75    1 H       0.124047      0.875953
    76    1 H       0.091052      0.908948
    77    1 H       0.110625      0.889375
    78    1 H       0.123226      0.876774
    79    1 H       0.111006      0.888994
    80    1 H       0.121635      0.878365
    81    1 H       0.259963      0.740037
    82    1 H       0.247367      0.752633
------------------------------------------------------


Wiberg/Mayer (AO) data.
largest (>0.10) Wiberg bond orders for each atom

 ---------------------------------------------------------------------------
     #   Z sym  total        # sym  WBO       # sym  WBO       # sym  WBO
 ---------------------------------------------------------------------------
     1   7 N    3.357 --     7 C    1.240     2 C    0.990    42 O    0.860
                             9 C    0.164
     2   6 C    3.939 --     1 N    0.990     3 C    0.964    34 C    0.930
                            43 O    0.928
     3   6 C    3.868 --     4 C    1.569     5 N    1.258     2 C    0.964
     4   8 C    1.855 --     3 C    1.569     5 N    0.149
     5   7 N    3.348 --     3 C    1.258     6 C    0.949    44 O    0.890
                             4 C    0.149
     6   6 C    3.932 --    37 C    0.989     5 N    0.949    45 O    0.939
                            29 C    0.934
     7   6 C    3.888 --     9 C    1.620     1 N    1.240     8 C    0.944
     8   6 C    3.931 --    11 C    0.973    10 N    0.967     7 C    0.944
                            46 O    0.931
     9   8 C    1.915 --     7 C    1.620     1 N    0.164
    10   7 N    3.283 --    12 C    1.162     8 C    0.967    47 O    0.891
                            15 C    0.164
    11   6 C    3.956 --    13 C    0.997     8 C    0.973    48 O    0.960
                            49 O    0.946
    12   6 C    3.880 --    15 C    1.725    10 N    1.162    14 C    0.916
    13   6 C    3.962 --    11 C    0.997    16 C    0.989    51 O    0.965
                            50 O    0.961
    14   6 C    3.947 --    17 N    1.021    18 C    0.949    52 O    0.932
                            12 C    0.916
    15   8 C    2.012 --    12 C    1.725    10 N    0.164
    16   6 C    3.970 --    19 C    1.030    13 C    0.989    53 O    0.958
                            54 O    0.950
    17   7 N    3.366 --    20 C    1.222    14 C    1.021    55 O    0.880
                            24 C    0.149
    18   6 C    3.954 --    21 C    0.976    57 O    0.956    14 C    0.949
                            56 O    0.937
    19   6 C    3.960 --    16 C    1.030    22 N    1.010    58 O    0.952
                            59 O    0.943
    20   6 C    3.841 --    24 C    1.660    17 N    1.222    23 C    0.869
    21   6 C    3.867 --    25 C    1.706    26 N    1.148    18 C    0.976
    22   7 N    2.940 --    19 C    1.010    60 O    0.946    61 O    0.933
    23   6 C    3.931 --    27 N    0.997    28 C    0.977    62 O    0.927
                            20 C    0.869
    24   8 C    1.977 --    20 C    1.660    17 N    0.149
    25   8 C    1.950 --    21 C    1.706    26 N    0.133
    26   7 N    3.152 --    21 C    1.148    64 O    0.923    63 O    0.912
                            25 C    0.133
    27   7 N    3.244 --    29 C    1.153    23 C    0.997    65 O    0.848
                            31 C    0.143
    28   6 C    3.956 --    23 C    0.977    30 C    0.958    66 O    0.957
                            67 O    0.940
    29   6 C    3.868 --    31 C    1.706    27 N    1.153     6 C    0.934
    30   6 C    3.874 --    32 C    1.650    33 N    1.225    28 C    0.958
    31   8 C    1.960 --    29 C    1.706    27 N    0.143
    32   8 C    1.917 --    30 C    1.650    33 N    0.157
    33   7 N    3.239 --    30 C    1.225    68 O    0.911    69 O    0.906
                            32 C    0.157
    34   6 C    3.964 --    35 C    1.010    36 C    1.007    70 O    0.932
                             2 C    0.930
    35   6 C    3.960 --    34 C    1.010    73 O    0.975    71 O    0.971
                            72 O    0.971
    36   6 C    3.953 --    34 C    1.007    76 O    0.974    74 O    0.969
                            75 O    0.966
    37   6 C    3.949 --     6 C    0.989    38 C    0.985    77 O    0.953
                            78 O    0.952
    38   6 C    3.958 --    37 C    0.985    80 O    0.959    79 O    0.953
                            39 C    0.952
    39   6 C    3.868 --    40 C    1.696    41 N    1.187    38 C    0.952
    40   8 C    1.960 --    39 C    1.696    41 N    0.162
    41   7 N    3.214 --    39 C    1.187    82 O    0.912    81 O    0.910
                            40 C    0.162
    42   1 O    0.912 --     1 N    0.860
    43   1 O    0.989 --     2 C    0.928
    44   1 O    0.928 --     5 N    0.890
    45   1 O    0.984 --     6 C    0.939
    46   1 O    0.984 --     8 C    0.931
    47   1 O    0.935 --    10 N    0.891
    48   1 O    0.991 --    11 C    0.960
    49   1 O    0.984 --    11 C    0.946
    50   1 O    0.989 --    13 C    0.961
    51   1 O    0.993 --    13 C    0.965
    52   1 O    0.981 --    14 C    0.932
    53   1 O    0.993 --    16 C    0.958
    54   1 O    0.995 --    16 C    0.950
    55   1 O    0.917 --    17 N    0.880
    56   1 O    0.981 --    18 C    0.937
    57   1 O    0.992 --    18 C    0.956
    58   1 O    0.991 --    19 C    0.952
    59   1 O    0.989 --    19 C    0.943
    60   1 O    0.960 --    22 N    0.946
    61   1 O    0.951 --    22 N    0.933
    62   1 O    0.976 --    23 C    0.927
    63   1 O    0.936 --    26 N    0.912
    64   1 O    0.945 --    26 N    0.923
    65   1 O    0.912 --    27 N    0.848
    66   1 O    0.987 --    28 C    0.957
    67   1 O    0.980 --    28 C    0.940
    68   1 O    0.938 --    33 N    0.911
    69   1 O    0.930 --    33 N    0.906
    70   1 O    0.982 --    34 C    0.932
    71   1 O    0.990 --    35 C    0.971
    72   1 O    0.995 --    35 C    0.971
    73   1 O    0.996 --    35 C    0.975
    74   1 O    0.990 --    36 C    0.969
    75   1 O    0.985 --    36 C    0.966
    76   1 O    0.992 --    36 C    0.974
    77   1 O    0.988 --    37 C    0.953
    78   1 O    0.985 --    37 C    0.952
    79   1 O    0.988 --    38 C    0.953
    80   1 O    0.985 --    38 C    0.959
    81   1 O    0.932 --    41 N    0.910
    82   1 O    0.939 --    41 N    0.912
 ---------------------------------------------------------------------------

Topologies differ in total number of bonds
Writing topology from bond orders to xtbtopo.mol

Atomic dipole moments (in atomic units):
---------------------------------------------------------
     #    Z                 x            y            z
---------------------------------------------------------
           total    -2.758823     4.492495    -2.069697
---------------------------------------------------------
         |total|     5.663679    14.395637 Debye


           -------------------------------------------------
          | TOTAL ENERGY            -2033.898460630502 Eh   |
          | GRADIENT NORM               0.365180723807 Eh/α |
           -------------------------------------------------

------------------------------------------------------------------------
 * finished run on 2026/05/23 at 12:44:48.220     
------------------------------------------------------------------------
 total:
 * wall-time:     0 d,  0 h,  0 min, 14.833 sec
 *  cpu-time:     0 d,  0 h,  0 min, 21.390 sec
 * ratio c/w:     1.442 speedup
 SCF:
 * wall-time:     0 d,  0 h,  0 min, 14.383 sec
 *  cpu-time:     0 d,  0 h,  0 min, 21.003 sec
 * ratio c/w:     1.460 speedup

normal termination of xtb
