      -----------------------------------------------------------      
     |                   =====================                   |     
     |                           x T B                           |     
     |                   =====================                   |     
     |                         S. Grimme                         |     
     |          Mulliken Center for Theoretical Chemistry        |     
     |                    University of Bonn                     |     
      -----------------------------------------------------------      

   * xtb version 6.7.1 (edcfbbe) compiled by 'albert@albert-system' on 2024-07-22

   xtb is free software: you can redistribute it and/or modify it under
   the terms of the GNU Lesser General Public License as published by
   the Free Software Foundation, either version 3 of the License, or
   (at your option) any later version.
   
   xtb is distributed in the hope that it will be useful,
   but WITHOUT ANY WARRANTY; without even the implied warranty of
   MERCHANTABILITY or FITNESS FOR A PARTICULAR PURPOSE.  See the
   GNU Lesser General Public License for more details.
   
   Cite this work as:
   * C. Bannwarth, E. Caldeweyher, S. Ehlert, A. Hansen, P. Pracht,
     J. Seibert, S. Spicher, S. Grimme, WIREs Comput. Mol. Sci., 2020, 11,
     e01493. DOI: 10.1002/wcms.1493
   
   for GFN2-xTB:
   * C. Bannwarth, S. Ehlert and S. Grimme., J. Chem. Theory Comput., 2019,
     15, 1652-1671. DOI: 10.1021/acs.jctc.8b01176
   for GFN1-xTB:
   * S. Grimme, C. Bannwarth, P. Shushkov, J. Chem. Theory Comput., 2017,
     13, 1989-2009. DOI: 10.1021/acs.jctc.7b00118
   for GFN0-xTB:
   * P. Pracht, E. Caldeweyher, S. Ehlert, S. Grimme, ChemRxiv, 2019, preprint.
     DOI: 10.26434/chemrxiv.8326202.v1
   for GFN-FF:
   * S. Spicher and S. Grimme, Angew. Chem. Int. Ed., 2020, 59, 15665-15673.
     DOI: 10.1002/anie.202004239
   
   for ALPB and GBSA implicit solvation:
   * S. Ehlert, M. Stahn, S. Spicher, S. Grimme, J. Chem. Theory Comput.,
     2021, 17, 4250-4261. DOI: 10.1021/acs.jctc.1c00471
   
   for ddCOSMO and CPCM-X implicit solvation:
   * M. Stahn, S. Ehlert, S. Grimme, J. Phys. Chem. A,
     2023, XX, XXXX-XXXX. DOI: 10.1021/acs.jpca.3c04382
   
   for DFT-D4:
   * E. Caldeweyher, C. Bannwarth and S. Grimme, J. Chem. Phys., 2017,
     147, 034112. DOI: 10.1063/1.4993215
   * E. Caldeweyher, S. Ehlert, A. Hansen, H. Neugebauer, S. Spicher,
     C. Bannwarth and S. Grimme, J. Chem. Phys., 2019, 150, 154122.
     DOI: 10.1063/1.5090222
   * E. Caldeweyher, J.-M. Mewes, S. Ehlert and S. Grimme, Phys. Chem. Chem. Phys.
     2020, 22, 8499-8512. DOI: 10.1039/D0CP00502A
   
   for sTDA-xTB:
   * S. Grimme and C. Bannwarth, J. Chem. Phys., 2016, 145, 054103.
     DOI: 10.1063/1.4959605
   
   in the mass-spec context:
   * V. Asgeirsson, C. Bauer and S. Grimme, Chem. Sci., 2017, 8, 4879.
     DOI: 10.1039/c7sc00601b
   * J. Koopman and S. Grimme, ACS Omega 2019, 4, 12, 15120-15133.
     DOI: 10.1021/acsomega.9b02011
   
   for metadynamics refer to:
   * S. Grimme, J. Chem. Theory Comput., 2019, 155, 2847-2862
     DOI: 10.1021/acs.jctc.9b00143
   
   for SPH calculations refer to:
   * S. Spicher and S. Grimme, J. Chem. Theory Comput., 2021, 17, 1701-1714
     DOI: 10.1021/acs.jctc.0c01306
   
   for ONIOM refer to:
   * C. Plett, A. Katbashev, S. Ehlert, S. Grimme, M. Bursch,
     Phys. Chem. Chem. Phys., 2023, 25, 17860-17868. DOI: 10.1039/D3CP02178E
   
   for DIPRO refer to:
   * J. Kohn, N. Gildemeister, S. Grimme, D. Fazzi, A. Hansen,
     J. Chem. Phys., 2023, just accepted.
   
   for PTB refer to:
   * S. Grimme, M. Mueller, A. Hansen, J. Chem. Phys., 2023, 158, 124111.
     DOI: 10.1063/5.0137838
   
   with help from (in alphabetical order)
   P. Atkinson, C. Bannwarth, F. Bohle, G. Brandenburg, E. Caldeweyher
   M. Checinski, S. Dohm, S. Ehlert, S. Ehrlich, I. Gerasimov, C. Hölzer
   A. Katbashev, J. Kohn, J. Koopman, C. Lavigne, S. Lehtola, F. März, M. Müller,
   F. Musil, H. Neugebauer, J. Pisarek, C. Plett, P. Pracht, F. Pultar,
   J. Seibert, P. Shushkov, S. Spicher, M. Stahn, M. Steiner, T. Strunk,
   J. Stückrath, T. Rose, and J. Unsleber
   
 * started run on 2026/05/23 at 12:38:47.990     
   ID    Z sym.   atoms
    1    7 N      1, 5, 10, 17, 18, 25, 30, 33
    2    6 C      2, 3, 6-8, 11-14, 19-23, 26-28, 31, 32, 34, 36-39
    3    8 O      4, 9, 15, 16, 24, 29, 35
    4    1 H      40-77

           -------------------------------------------------
          |                Calculation Setup                |
           -------------------------------------------------

          program call               : /home/xchen/software/xtb-6.7.1/xtb-dist/bin/xtb /home/xchen/Test/benchmark/md_sampled/05_5_0513_0/snap_0131.xyz --charge 0 --gfn 2 --norestart
          coordinate file            : /home/xchen/Test/benchmark/md_sampled/05_5_0513_0/snap_0131.xyz
          omp threads                :                    48


           -------------------------------------------------
          |                 G F N 2 - x T B                 |
           -------------------------------------------------

        Reference                      10.1021/acs.jctc.8b01176
      * Hamiltonian:
        H0-scaling (s, p, d)           1.850000    2.230000    2.230000
        zeta-weighting                 0.500000
      * Dispersion:
        s8                             2.700000
        a1                             0.520000
        a2                             5.000000
        s9                             5.000000
      * Repulsion:
        kExp                           1.500000    1.000000
        rExp                           1.000000
      * Coulomb:
        alpha                          2.000000
        third order                    shell-resolved
        anisotropic                    true
        a3                             3.000000
        a5                             4.000000
        cn-shift                       1.200000
        cn-exp                         4.000000
        max-rad                        5.000000


          ...................................................
          :                      SETUP                      :
          :.................................................:
          :  # basis functions                 194          :
          :  # atomic orbitals                 194          :
          :  # shells                          116          :
          :  # electrons                       216          :
          :  max. iterations                   250          :
          :  Hamiltonian                  GFN2-xTB          :
          :  restarted?                      false          :
          :  GBSA solvation                  false          :
          :  PC potential                    false          :
          :  electronic temp.          300.0000000     K    :
          :  accuracy                    1.0000000          :
          :  -> integral cutoff          0.2500000E+02      :
          :  -> integral neglect         0.1000000E-07      :
          :  -> SCF convergence          0.1000000E-05 Eh   :
          :  -> wf. convergence          0.1000000E-03 e    :
          :  Broyden damping             0.4000000          :
          :  net charge                          0          :
          :  unpaired electrons                  0          :
          ...................................................

 iter      E             dE          RMSdq      gap      omega  full diag
   1   -123.6184417 -0.123618E+03  0.410E+00    4.04       0.0  T
   2   -123.9834375 -0.364996E+00  0.225E+00    3.40       1.0  T
   3   -124.0022563 -0.188189E-01  0.126E+00    3.56       1.0  T
   4   -124.0006877  0.156864E-02  0.372E-01    3.43       1.0  T
   5   -124.0092167 -0.852906E-02  0.105E-01    3.46       1.0  T
   6   -124.0093443 -0.127566E-03  0.591E-02    3.49       1.0  T
   7   -124.0094233 -0.790191E-04  0.222E-02    3.48       1.0  T
   8   -124.0094272 -0.386568E-05  0.682E-03    3.48       1.7  T
   9   -124.0094278 -0.612755E-06  0.309E-03    3.48       3.7  T
  10   -124.0094279 -0.104700E-06  0.123E-03    3.48       9.2  T
  11   -124.0094279 -0.304513E-07  0.469E-04    3.48      24.3  T
  12   -124.0094279 -0.452465E-08  0.146E-04    3.48      78.0  T

   *** convergence criteria satisfied after 12 iterations ***

         #    Occupation            Energy/Eh            Energy/eV
      -------------------------------------------------------------
         1        2.0000           -0.7193311             -19.5740
       ...           ...                  ...                  ...
       102        2.0000           -0.4059224             -11.0457
       103        2.0000           -0.4046498             -11.0111
       104        2.0000           -0.4007324             -10.9045
       105        2.0000           -0.3999723             -10.8838
       106        2.0000           -0.3949220             -10.7464
       107        2.0000           -0.3925151             -10.6809
       108        2.0000           -0.3841381             -10.4529 (HOMO)
       109                         -0.2563056              -6.9744 (LUMO)
       110                         -0.2360647              -6.4236
       111                         -0.2334580              -6.3527
       112                         -0.2286660              -6.2223
       113                         -0.2262833              -6.1575
       ...                                ...                  ...
       194                          0.6416595              17.4604
      -------------------------------------------------------------
                  HL-Gap            0.1278325 Eh            3.4785 eV
             Fermi-level           -0.3202218 Eh           -8.7137 eV

 SCC (total)                   0 d,  0 h,  0 min, 14.725 sec
 SCC setup                      ...        0 min,  0.037 sec (  0.249%)
 Dispersion                     ...        0 min,  0.084 sec (  0.574%)
 classical contributions        ...        0 min,  0.008 sec (  0.057%)
 integral evaluation            ...        0 min,  0.455 sec (  3.093%)
 iterations                     ...        0 min, 13.237 sec ( 89.893%)
 molecular gradient             ...        0 min,  0.884 sec (  6.003%)
 printout                       ...        0 min,  0.019 sec (  0.132%)

         :::::::::::::::::::::::::::::::::::::::::::::::::::::
         ::                     SUMMARY                     ::
         :::::::::::::::::::::::::::::::::::::::::::::::::::::
         :: total energy            -122.589313552444 Eh    ::
         :: gradient norm              0.352771481695 Eh/a0 ::
         :: HOMO-LUMO gap              3.478498090176 eV    ::
         ::.................................................::
         :: SCC energy              -124.005768686990 Eh    ::
         :: -> isotropic ES            0.268863086690 Eh    ::
         :: -> anisotropic ES          0.010234929327 Eh    ::
         :: -> anisotropic XC          0.038205181582 Eh    ::
         :: -> dispersion             -0.089941234576 Eh    ::
         :: repulsion energy           1.416455134546 Eh    ::
         :: add. restraining           0.000000000000 Eh    ::
         :: total charge               0.000000000000 e     ::
         :::::::::::::::::::::::::::::::::::::::::::::::::::::

           -------------------------------------------------
          |                Property Printout                |
           -------------------------------------------------

    * Orbital Energies and Occupations

         #    Occupation            Energy/Eh            Energy/eV
      -------------------------------------------------------------
         1        2.0000           -0.7193311             -19.5740
       ...           ...                  ...                  ...
        96        2.0000           -0.4305113             -11.7148
        97        2.0000           -0.4288158             -11.6687
        98        2.0000           -0.4233385             -11.5196
        99        2.0000           -0.4194806             -11.4146
       100        2.0000           -0.4152211             -11.2987
       101        2.0000           -0.4077526             -11.0955
       102        2.0000           -0.4059224             -11.0457
       103        2.0000           -0.4046498             -11.0111
       104        2.0000           -0.4007324             -10.9045
       105        2.0000           -0.3999723             -10.8838
       106        2.0000           -0.3949220             -10.7464
       107        2.0000           -0.3925151             -10.6809
       108        2.0000           -0.3841381             -10.4529 (HOMO)
       109                         -0.2563056              -6.9744 (LUMO)
       110                         -0.2360647              -6.4236
       111                         -0.2334580              -6.3527
       112                         -0.2286660              -6.2223
       113                         -0.2262833              -6.1575
       114                         -0.2182655              -5.9393
       115                         -0.2099832              -5.7139
       116                         -0.1910653              -5.1992
       117                         -0.0683655              -1.8603
       118                         -0.0604107              -1.6439
       119                         -0.0541356              -1.4731
       ...                                ...                  ...
       194                          0.6416595              17.4604
      -------------------------------------------------------------
                  HL-Gap            0.1278325 Eh            3.4785 eV
             Fermi-level           -0.3202218 Eh           -8.7137 eV

     #   Z          covCN         q      C6AA      α(0)
     1   7 N        2.693    -0.158    24.416     7.339
     2   6 C        3.820    -0.003    20.626     6.463
     3   6 C        2.742     0.279    22.281     7.729
     4   8 O        0.862    -0.416    21.998     6.288
     5   7 N        2.712    -0.177    24.840     7.402
     6   6 C        3.801     0.028    20.103     6.384
     7   6 C        2.766     0.268    22.479     7.765
     8   6 C        3.715     0.014    20.457     6.462
     9   8 O        0.866    -0.428    22.244     6.324
    10   7 N        2.681    -0.173    24.753     7.389
    11   6 C        3.800    -0.092    22.253     6.716
    12   6 C        2.750     0.280    22.264     7.726
    13   6 C        2.742     0.278    22.299     7.732
    14   6 C        3.775     0.011    20.410     6.437
    15   8 O        0.860    -0.450    22.713     6.390
    16   8 O        0.858    -0.407    21.819     6.263
    17   7 N        2.634    -0.291    27.498     7.788
    18   7 N        2.675    -0.234    26.135     7.593
    19   6 C        3.852    -0.006    20.644     6.462
    20   6 C        2.728     0.268    22.477     7.762
    21   6 C        3.768    -0.115    22.733     6.795
    22   6 C        3.782    -0.110    22.623     6.776
    23   6 C        3.765     0.022    20.240     6.412
    24   8 O        0.856    -0.376    21.202     6.174
    25   7 N        2.687    -0.153    24.310     7.323
    26   6 C        3.803    -0.077    21.961     6.672
    27   6 C        2.780     0.263    22.563     7.780
    28   6 C        3.146     0.057    26.459     8.415
    29   8 O        0.857    -0.487    23.507     6.500
    30   7 N        1.918    -0.286    28.249     7.881
    31   6 C        2.997    -0.029    28.707     8.789
    32   6 C        3.035     0.090    25.966     8.358
    33   7 N        2.827    -0.088    22.960     7.117
    34   6 C        3.682     0.072    19.583     6.337
    35   8 O        1.635    -0.421    21.276     6.226
    36   6 C        3.861    -0.018    20.856     6.495
    37   6 C        3.765    -0.117    22.777     6.802
    38   6 C        3.788    -0.055    21.567     6.614
    39   6 C        3.753    -0.111    22.677     6.791
    40   1 H        0.860     0.187     1.175     1.698
    41   1 H        0.924     0.118     1.631     1.997
    42   1 H        0.859     0.176     1.238     1.743
    43   1 H        0.924     0.077     2.006     2.215
    44   1 H        0.863     0.080     1.988     2.208
    45   1 H        0.856     0.177     1.229     1.737
    46   1 H        0.922     0.052     2.301     2.372
    47   1 H        0.927     0.089     1.887     2.148
    48   1 H        0.918     0.084     1.935     2.176
    49   1 H        0.862     0.198     1.117     1.656
    50   1 H        0.859     0.189     1.164     1.690
    51   1 H        0.860     0.219     1.012     1.576
    52   1 H        0.924     0.045     2.384     2.415
    53   1 H        0.927     0.054     2.274     2.358
    54   1 H        0.918     0.028     2.610     2.527
    55   1 H        0.928     0.047     2.360     2.402
    56   1 H        0.926     0.041     2.430     2.438
    57   1 H        0.924     0.045     2.378     2.412
    58   1 H        0.925     0.044     2.401     2.423
    59   1 H        0.916     0.065     2.141     2.289
    60   1 H        0.861     0.197     1.120     1.658
    61   1 H        0.927     0.056     2.241     2.341
    62   1 H        0.925     0.066     2.135     2.285
    63   1 H        0.929     0.043     2.409     2.427
    64   1 H        0.903     0.029     2.599     2.522
    65   1 H        0.856     0.157     1.353     1.822
    66   1 H        0.925     0.027     2.634     2.538
    67   1 H        0.927     0.064     2.149     2.292
    68   1 H        0.783     0.302     0.721     1.336
    69   1 H        0.927     0.060     2.195     2.317
    70   1 H        0.928     0.056     2.248     2.345
    71   1 H        0.925     0.054     2.276     2.359
    72   1 H        0.923     0.040     2.444     2.445
    73   1 H        0.916     0.019     2.754     2.595
    74   1 H        0.921     0.047     2.357     2.401
    75   1 H        0.922     0.024     2.669     2.555
    76   1 H        0.926     0.043     2.411     2.428
    77   1 H        0.929     0.046     2.371     2.408

 Mol. C6AA /au·bohr⁶  :      57240.655658
 Mol. C8AA /au·bohr⁸  :    1274884.977063
 Mol. α(0) /au        :        358.222216


Wiberg/Mayer (AO) data.
largest (>0.10) Wiberg bond orders for each atom

 ---------------------------------------------------------------------------
     #   Z sym  total        # sym  WBO       # sym  WBO       # sym  WBO
 ---------------------------------------------------------------------------
     1   7 N    3.487 --     7 C    1.330     2 C    0.959    40 H    0.921
                             9 O    0.203
     2   6 C    3.943 --    34 C    0.984     1 N    0.959    41 H    0.940
                             3 C    0.906
     3   6 C    3.954 --     4 O    1.690     5 N    1.268     2 C    0.906
     4   8 O    2.028 --     3 C    1.690     5 N    0.204
     5   7 N    3.450 --     3 C    1.268     6 C    0.945    42 H    0.929
                             4 O    0.204
     6   6 C    3.967 --    27 C    1.004    36 C    0.953    43 H    0.950
                             5 N    0.945
     7   6 C    3.955 --     9 O    1.661     1 N    1.330     8 C    0.906
     8   6 C    3.948 --    11 C    0.963    10 N    0.957    44 H    0.948
                             7 C    0.906
     9   8 O    2.020 --     7 C    1.661     1 N    0.203
    10   7 N    3.415 --    12 C    1.279     8 C    0.957    45 H    0.921
                            15 O    0.176
    11   6 C    3.991 --    13 C    0.980     8 C    0.963    47 H    0.962
                            46 H    0.961
    12   6 C    3.948 --    15 O    1.659    10 N    1.279    14 C    0.945
    13   6 C    3.946 --    16 O    1.741    17 N    1.199    11 C    0.980
    14   6 C    3.958 --    18 N    0.967    48 H    0.956    19 C    0.947
                            12 C    0.945
    15   8 O    1.970 --    12 C    1.659    10 N    0.176
    16   8 O    2.038 --    13 C    1.741    17 N    0.196
    17   7 N    3.324 --    13 C    1.199    49 H    0.947    50 H    0.946
                            16 O    0.196
    18   7 N    3.377 --    20 C    1.218    14 C    0.967    51 H    0.883
                            24 O    0.202
    19   6 C    3.992 --    22 C    1.025    21 C    1.011    52 H    0.961
                            14 C    0.947
    20   6 C    3.946 --    24 O    1.773    18 N    1.218    23 C    0.887
    21   6 C    3.992 --    19 C    1.011    55 H    0.983    54 H    0.980
                            53 H    0.980
    22   6 C    3.989 --    19 C    1.025    57 H    0.980    56 H    0.978
                            58 H    0.977
    23   6 C    3.956 --    25 N    1.006    26 C    0.969    59 H    0.961
                            20 C    0.887
    24   8 O    2.093 --    20 C    1.773    18 N    0.202
    25   7 N    3.478 --    27 C    1.268    23 C    1.006    60 H    0.933
                            29 O    0.187
    26   6 C    3.989 --    28 C    1.012    23 C    0.969    61 H    0.968
                            62 H    0.946
    27   6 C    3.953 --    29 O    1.584    25 N    1.268     6 C    1.004
    28   6 C    3.971 --    31 C    1.550    30 N    1.260    26 C    1.012
    29   8 O    1.947 --    27 C    1.584    25 N    0.187
    30   7 N    3.019 --    32 C    1.553    28 C    1.260    33 N    0.108
    31   6 C    3.935 --    28 C    1.550    33 N    1.210    63 H    0.970
                            32 C    0.124
    32   6 C    3.947 --    30 N    1.553    33 N    1.253    64 H    0.956
                            31 C    0.124
    33   7 N    3.586 --    32 C    1.253    31 C    1.210    65 H    0.940
                            30 N    0.108
    34   6 C    3.964 --    35 O    1.015     2 C    0.984    67 H    0.967
                            66 H    0.960
    35   8 O    1.964 --    34 C    1.015    68 H    0.883
    36   6 C    3.988 --    37 C    1.010    38 C    0.992    69 H    0.958
                             6 C    0.953
    37   6 C    3.991 --    36 C    1.010    72 H    0.982    71 H    0.982
                            70 H    0.981
    38   6 C    3.992 --    39 C    1.013    36 C    0.992    73 H    0.973
                            74 H    0.973
    39   6 C    3.991 --    38 C    1.013    77 H    0.987    76 H    0.986
                            75 H    0.985
    40   1 H    0.965 --     1 N    0.921
    41   1 H    0.986 --     2 C    0.940
    42   1 H    0.969 --     5 N    0.929
    43   1 H    0.994 --     6 C    0.950
    44   1 H    0.993 --     8 C    0.948
    45   1 H    0.968 --    10 N    0.921
    46   1 H    0.997 --    11 C    0.961
    47   1 H    0.992 --    11 C    0.962
    48   1 H    0.992 --    14 C    0.956
    49   1 H    0.961 --    17 N    0.947
    50   1 H    0.964 --    17 N    0.946
    51   1 H    0.952 --    18 N    0.883
    52   1 H    0.998 --    19 C    0.961
    53   1 H    0.997 --    21 C    0.980
    54   1 H    0.999 --    21 C    0.980
    55   1 H    0.998 --    21 C    0.983
    56   1 H    0.998 --    22 C    0.978
    57   1 H    0.998 --    22 C    0.980
    58   1 H    0.998 --    22 C    0.977
    59   1 H    0.995 --    23 C    0.961
    60   1 H    0.961 --    25 N    0.933
    61   1 H    0.996 --    26 C    0.968
    62   1 H    0.996 --    26 C    0.946
    63   1 H    0.998 --    31 C    0.970
    64   1 H    0.999 --    32 C    0.956
    65   1 H    0.975 --    33 N    0.940
    66   1 H    0.999 --    34 C    0.960
    67   1 H    0.995 --    34 C    0.967
    68   1 H    0.909 --    35 O    0.883
    69   1 H    0.996 --    36 C    0.958
    70   1 H    0.996 --    37 C    0.981
    71   1 H    0.997 --    37 C    0.982
    72   1 H    0.998 --    37 C    0.982
    73   1 H    1.000 --    38 C    0.973
    74   1 H    0.998 --    38 C    0.973
    75   1 H    0.999 --    39 C    0.985
    76   1 H    0.998 --    39 C    0.986
    77   1 H    0.998 --    39 C    0.987
 ---------------------------------------------------------------------------

Topologies differ in total number of bonds
Writing topology from bond orders to xtbtopo.mol

molecular dipole:
                 x           y           z       tot (Debye)
 q only:       -3.420      -1.203      -2.874
   full:       -4.247      -1.737      -3.646      14.896
molecular quadrupole (traceless):
                xx          xy          yy          xz          yz          zz
 q only:       19.304      11.443     -11.584     -17.713      -8.152      -7.720
  q+dip:       30.674      21.348     -17.942     -16.812     -13.944     -12.732
   full:       31.243      21.201     -18.247     -17.784     -14.142     -12.996


           -------------------------------------------------
          | TOTAL ENERGY             -122.589313552444 Eh   |
          | GRADIENT NORM               0.352771481695 Eh/α |
          | HOMO-LUMO GAP               3.478498090176 eV   |
           -------------------------------------------------

------------------------------------------------------------------------
 * finished run on 2026/05/23 at 12:39:03.512     
------------------------------------------------------------------------
 total:
 * wall-time:     0 d,  0 h,  0 min, 15.521 sec
 *  cpu-time:     0 d,  0 h,  0 min, 17.728 sec
 * ratio c/w:     1.142 speedup
 SCF:
 * wall-time:     0 d,  0 h,  0 min, 14.726 sec
 *  cpu-time:     0 d,  0 h,  0 min, 16.837 sec
 * ratio c/w:     1.143 speedup

normal termination of xtb
