      -----------------------------------------------------------      
     |                   =====================                   |     
     |                           x T B                           |     
     |                   =====================                   |     
     |                         S. Grimme                         |     
     |          Mulliken Center for Theoretical Chemistry        |     
     |                    University of Bonn                     |     
      -----------------------------------------------------------      

   * xtb version 6.7.1 (edcfbbe) compiled by 'albert@albert-system' on 2024-07-22

   xtb is free software: you can redistribute it and/or modify it under
   the terms of the GNU Lesser General Public License as published by
   the Free Software Foundation, either version 3 of the License, or
   (at your option) any later version.
   
   xtb is distributed in the hope that it will be useful,
   but WITHOUT ANY WARRANTY; without even the implied warranty of
   MERCHANTABILITY or FITNESS FOR A PARTICULAR PURPOSE.  See the
   GNU Lesser General Public License for more details.
   
   Cite this work as:
   * C. Bannwarth, E. Caldeweyher, S. Ehlert, A. Hansen, P. Pracht,
     J. Seibert, S. Spicher, S. Grimme, WIREs Comput. Mol. Sci., 2020, 11,
     e01493. DOI: 10.1002/wcms.1493
   
   for GFN2-xTB:
   * C. Bannwarth, S. Ehlert and S. Grimme., J. Chem. Theory Comput., 2019,
     15, 1652-1671. DOI: 10.1021/acs.jctc.8b01176
   for GFN1-xTB:
   * S. Grimme, C. Bannwarth, P. Shushkov, J. Chem. Theory Comput., 2017,
     13, 1989-2009. DOI: 10.1021/acs.jctc.7b00118
   for GFN0-xTB:
   * P. Pracht, E. Caldeweyher, S. Ehlert, S. Grimme, ChemRxiv, 2019, preprint.
     DOI: 10.26434/chemrxiv.8326202.v1
   for GFN-FF:
   * S. Spicher and S. Grimme, Angew. Chem. Int. Ed., 2020, 59, 15665-15673.
     DOI: 10.1002/anie.202004239
   
   for ALPB and GBSA implicit solvation:
   * S. Ehlert, M. Stahn, S. Spicher, S. Grimme, J. Chem. Theory Comput.,
     2021, 17, 4250-4261. DOI: 10.1021/acs.jctc.1c00471
   
   for ddCOSMO and CPCM-X implicit solvation:
   * M. Stahn, S. Ehlert, S. Grimme, J. Phys. Chem. A,
     2023, XX, XXXX-XXXX. DOI: 10.1021/acs.jpca.3c04382
   
   for DFT-D4:
   * E. Caldeweyher, C. Bannwarth and S. Grimme, J. Chem. Phys., 2017,
     147, 034112. DOI: 10.1063/1.4993215
   * E. Caldeweyher, S. Ehlert, A. Hansen, H. Neugebauer, S. Spicher,
     C. Bannwarth and S. Grimme, J. Chem. Phys., 2019, 150, 154122.
     DOI: 10.1063/1.5090222
   * E. Caldeweyher, J.-M. Mewes, S. Ehlert and S. Grimme, Phys. Chem. Chem. Phys.
     2020, 22, 8499-8512. DOI: 10.1039/D0CP00502A
   
   for sTDA-xTB:
   * S. Grimme and C. Bannwarth, J. Chem. Phys., 2016, 145, 054103.
     DOI: 10.1063/1.4959605
   
   in the mass-spec context:
   * V. Asgeirsson, C. Bauer and S. Grimme, Chem. Sci., 2017, 8, 4879.
     DOI: 10.1039/c7sc00601b
   * J. Koopman and S. Grimme, ACS Omega 2019, 4, 12, 15120-15133.
     DOI: 10.1021/acsomega.9b02011
   
   for metadynamics refer to:
   * S. Grimme, J. Chem. Theory Comput., 2019, 155, 2847-2862
     DOI: 10.1021/acs.jctc.9b00143
   
   for SPH calculations refer to:
   * S. Spicher and S. Grimme, J. Chem. Theory Comput., 2021, 17, 1701-1714
     DOI: 10.1021/acs.jctc.0c01306
   
   for ONIOM refer to:
   * C. Plett, A. Katbashev, S. Ehlert, S. Grimme, M. Bursch,
     Phys. Chem. Chem. Phys., 2023, 25, 17860-17868. DOI: 10.1039/D3CP02178E
   
   for DIPRO refer to:
   * J. Kohn, N. Gildemeister, S. Grimme, D. Fazzi, A. Hansen,
     J. Chem. Phys., 2023, just accepted.
   
   for PTB refer to:
   * S. Grimme, M. Mueller, A. Hansen, J. Chem. Phys., 2023, 158, 124111.
     DOI: 10.1063/5.0137838
   
   with help from (in alphabetical order)
   P. Atkinson, C. Bannwarth, F. Bohle, G. Brandenburg, E. Caldeweyher
   M. Checinski, S. Dohm, S. Ehlert, S. Ehrlich, I. Gerasimov, C. Hölzer
   A. Katbashev, J. Kohn, J. Koopman, C. Lavigne, S. Lehtola, F. März, M. Müller,
   F. Musil, H. Neugebauer, J. Pisarek, C. Plett, P. Pracht, F. Pultar,
   J. Seibert, P. Shushkov, S. Spicher, M. Stahn, M. Steiner, T. Strunk,
   J. Stückrath, T. Rose, and J. Unsleber
   
 * started run on 2026/05/23 at 12:58:37.575     
   ID    Z sym.   atoms
    1    7 N      1, 5, 10, 17, 27, 34, 39, 43, 54, 56, 57
    2    6 C      2, 3, 6-8, 11-14, 16, 18, 21-23, 28-31, 33, 35-38, 40,
                  44-48, 50-53, 55, 58
    3    8 O      4, 9, 15, 19, 20, 24-26, 32, 41, 49
    4   16 S      42
    5    1 H      59-117

           -------------------------------------------------
          |                Calculation Setup                |
           -------------------------------------------------

          program call               : /home/xchen/software/xtb-6.7.1/xtb-dist/bin/xtb /home/xchen/Test/benchmark/md_sampled/04_7_0231_n2/snap_0153.xyz --charge -2 --gfn 2 --norestart
          coordinate file            : /home/xchen/Test/benchmark/md_sampled/04_7_0231_n2/snap_0153.xyz
          omp threads                :                    48


           -------------------------------------------------
          |                 G F N 2 - x T B                 |
           -------------------------------------------------

        Reference                      10.1021/acs.jctc.8b01176
      * Hamiltonian:
        H0-scaling (s, p, d)           1.850000    2.230000    2.230000
        zeta-weighting                 0.500000
      * Dispersion:
        s8                             2.700000
        a1                             0.520000
        a2                             5.000000
        s9                             5.000000
      * Repulsion:
        kExp                           1.500000    1.000000
        rExp                           1.000000
      * Coulomb:
        alpha                          2.000000
        third order                    shell-resolved
        anisotropic                    true
        a3                             3.000000
        a5                             4.000000
        cn-shift                       1.200000
        cn-exp                         4.000000
        max-rad                        5.000000


          ...................................................
          :                      SETUP                      :
          :.................................................:
          :  # basis functions                 297          :
          :  # atomic orbitals                 296          :
          :  # shells                          176          :
          :  # electrons                       328          :
          :  max. iterations                   250          :
          :  Hamiltonian                  GFN2-xTB          :
          :  restarted?                      false          :
          :  GBSA solvation                  false          :
          :  PC potential                    false          :
          :  electronic temp.          300.0000000     K    :
          :  accuracy                    1.0000000          :
          :  -> integral cutoff          0.2500000E+02      :
          :  -> integral neglect         0.1000000E-07      :
          :  -> SCF convergence          0.1000000E-05 Eh   :
          :  -> wf. convergence          0.1000000E-03 e    :
          :  Broyden damping             0.4000000          :
          :  net charge                         -2          :
          :  unpaired electrons                  0          :
          ...................................................

 iter      E             dE          RMSdq      gap      omega  full diag
   1   -186.9660862 -0.186966E+03  0.416E+00    3.51       0.0  T
   2   -187.4523197 -0.486233E+00  0.217E+00    2.70       1.0  T
   3   -187.4792659 -0.269463E-01  0.117E+00    1.53       1.0  T
   4   -187.4883687 -0.910281E-02  0.264E-01    0.24       1.0  T
   5   -187.4916305 -0.326176E-02  0.121E-01    0.50       1.0  T
   6   -187.4918678 -0.237296E-03  0.425E-02    0.49       1.0  T
   7   -187.4918874 -0.195802E-04  0.174E-02    0.51       1.0  T
   8   -187.4918932 -0.580844E-05  0.660E-03    0.50       1.4  T
   9   -187.4918941 -0.920281E-06  0.229E-03    0.50       4.0  T
  10   -187.4918942 -0.100205E-06  0.945E-04    0.50       9.8  T
  11   -187.4918942 -0.201309E-07  0.338E-04    0.50      27.3  T

   *** convergence criteria satisfied after 11 iterations ***

         #    Occupation            Energy/Eh            Energy/eV
      -------------------------------------------------------------
         1        2.0000           -0.5951139             -16.1939
       ...           ...                  ...                  ...
       158        2.0000           -0.2112552              -5.7485
       159        2.0000           -0.2068872              -5.6297
       160        2.0000           -0.1994141              -5.4263
       161        2.0000           -0.1750942              -4.7646
       162        2.0000           -0.1504733              -4.0946
       163        2.0000           -0.1366936              -3.7196
       164        1.9999           -0.1253580              -3.4112 (HOMO)
       165        0.0001           -0.1070843              -2.9139 (LUMO)
       166                         -0.0950545              -2.5866
       167                         -0.0918431              -2.4992
       168                         -0.0766028              -2.0845
       169                         -0.0703882              -1.9154
       ...                                ...                  ...
       296                          0.9164810              24.9387
      -------------------------------------------------------------
                  HL-Gap            0.0182738 Eh            0.4973 eV
             Fermi-level           -0.1162212 Eh           -3.1625 eV

 SCC (total)                   0 d,  0 h,  0 min, 11.751 sec
 SCC setup                      ...        0 min,  0.006 sec (  0.049%)
 Dispersion                     ...        0 min,  0.050 sec (  0.424%)
 classical contributions        ...        0 min,  0.002 sec (  0.020%)
 integral evaluation            ...        0 min,  0.220 sec (  1.875%)
 iterations                     ...        0 min, 10.647 sec ( 90.603%)
 molecular gradient             ...        0 min,  0.810 sec (  6.895%)
 printout                       ...        0 min,  0.015 sec (  0.132%)

         :::::::::::::::::::::::::::::::::::::::::::::::::::::
         ::                     SUMMARY                     ::
         :::::::::::::::::::::::::::::::::::::::::::::::::::::
         :: total energy            -185.512166723179 Eh    ::
         :: gradient norm              0.391891968702 Eh/a0 ::
         :: HOMO-LUMO gap              0.497254464079 eV    ::
         ::.................................................::
         :: SCC energy              -187.485644703899 Eh    ::
         :: -> isotropic ES            0.711302132054 Eh    ::
         :: -> anisotropic ES          0.017977911307 Eh    ::
         :: -> anisotropic XC          0.062171084032 Eh    ::
         :: -> dispersion             -0.136695041500 Eh    ::
         :: repulsion energy           1.973477980719 Eh    ::
         :: add. restraining           0.000000000000 Eh    ::
         :: total charge              -1.999999999565 e     ::
         :::::::::::::::::::::::::::::::::::::::::::::::::::::

           -------------------------------------------------
          |                Property Printout                |
           -------------------------------------------------

    * Orbital Energies and Occupations

         #    Occupation            Energy/Eh            Energy/eV
      -------------------------------------------------------------
         1        2.0000           -0.5951139             -16.1939
       ...           ...                  ...                  ...
       152        2.0000           -0.2408631              -6.5542
       153        2.0000           -0.2401152              -6.5339
       154        2.0000           -0.2351479              -6.3987
       155        2.0000           -0.2344222              -6.3790
       156        2.0000           -0.2223162              -6.0495
       157        2.0000           -0.2217254              -6.0335
       158        2.0000           -0.2112552              -5.7485
       159        2.0000           -0.2068872              -5.6297
       160        2.0000           -0.1994141              -5.4263
       161        2.0000           -0.1750942              -4.7646
       162        2.0000           -0.1504733              -4.0946
       163        2.0000           -0.1366936              -3.7196
       164        1.9999           -0.1253580              -3.4112 (HOMO)
       165        0.0001           -0.1070843              -2.9139 (LUMO)
       166                         -0.0950545              -2.5866
       167                         -0.0918431              -2.4992
       168                         -0.0766028              -2.0845
       169                         -0.0703882              -1.9154
       170                         -0.0527315              -1.4349
       171                         -0.0512630              -1.3949
       172                         -0.0500907              -1.3630
       173                         -0.0457386              -1.2446
       174                         -0.0426731              -1.1612
       175                         -0.0252260              -0.6864
       ...                                ...                  ...
       296                          0.9164810              24.9387
      -------------------------------------------------------------
                  HL-Gap            0.0182738 Eh            0.4973 eV
             Fermi-level           -0.1162212 Eh           -3.1625 eV

     #   Z          covCN         q      C6AA      α(0)
     1   7 N        2.713    -0.217    25.722     7.532
     2   6 C        3.792     0.031    20.067     6.379
     3   6 C        2.761     0.304    21.843     7.654
     4   8 O        0.863    -0.424    22.161     6.312
     5   7 N        2.688    -0.183    24.970     7.422
     6   6 C        3.773     0.015    20.350     6.428
     7   6 C        2.754     0.287    22.145     7.706
     8   6 C        3.812     0.026    20.133     6.387
     9   8 O        0.859    -0.412    21.926     6.278
    10   7 N        2.678    -0.183    24.959     7.420
    11   6 C        3.794    -0.041    21.307     6.573
    12   6 C        2.793     0.285    22.183     7.715
    13   6 C        3.770    -0.092    22.287     6.728
    14   6 C        3.846     0.058    19.575     6.293
    15   8 O        0.860    -0.481    23.376     6.482
    16   6 C        2.664     0.351    21.047     7.506
    17   7 N        1.962    -0.433    32.295     8.427
    18   6 C        3.827    -0.110    22.583     6.762
    19   8 O        0.856    -0.589    25.851     6.817
    20   8 O        0.855    -0.599    26.093     6.849
    21   6 C        2.806     0.257    22.687     7.803
    22   6 C        2.677     0.352    21.025     7.503
    23   6 C        3.775     0.028    20.125     6.392
    24   8 O        0.856    -0.597    26.042     6.842
    25   8 O        0.860    -0.469    23.110     6.445
    26   8 O        1.651    -0.367    20.232     6.072
    27   7 N        2.688    -0.188    25.078     7.438
    28   6 C        3.778    -0.050    21.488     6.604
    29   6 C        2.751     0.265    22.527     7.772
    30   6 C        3.789    -0.051    21.500     6.604
    31   6 C        3.780     0.024    20.184     6.400
    32   8 O        0.858    -0.445    22.595     6.373
    33   6 C        3.806    -0.062    21.691     6.630
    34   7 N        2.691    -0.188    25.079     7.438
    35   6 C        3.892    -0.063    21.662     6.616
    36   6 C        3.718     0.018    20.389     6.450
    37   6 C        2.752     0.286    22.160     7.708
    38   6 C        3.806     0.004    20.509     6.447
    39   7 N        2.622    -0.352    29.085     8.010
    40   6 C        3.780     0.020    20.251     6.411
    41   8 O        0.858    -0.459    22.906     6.417
    42  16 S        2.030    -0.222   150.558    20.652
    43   7 N        2.687    -0.190    25.115     7.443
    44   6 C        3.838    -0.027    21.021     6.523
    45   6 C        3.732    -0.049    21.545     6.625
    46   6 C        2.735     0.256    22.684     7.798
    47   6 C        3.753    -0.118    22.821     6.812
    48   6 C        3.746    -0.046    21.472     6.610
    49   8 O        0.861    -0.441    22.523     6.363
    50   6 C        3.715    -0.094    22.419     6.765
    51   6 C        3.778    -0.062    21.716     6.639
    52   6 C        3.786    -0.058    21.639     6.626
    53   6 C        3.725     0.002    20.652     6.489
    54   7 N        2.670    -0.239    26.251     7.610
    55   6 C        2.726     0.237    23.032     7.857
    56   7 N        1.780    -0.414    31.726     8.342
    57   7 N        2.627    -0.335    28.615     7.945
    58   6 C        3.707    -0.105    22.658     6.804
    59   1 H        0.856     0.222     1.001     1.568
    60   1 H        0.925     0.048     2.350     2.397
    61   1 H        0.861     0.186     1.181     1.702
    62   1 H        0.921     0.088     1.897     2.154
    63   1 H        0.909     0.046     2.369     2.408
    64   1 H        0.855     0.182     1.202     1.718
    65   1 H        0.912     0.033     2.546     2.496
    66   1 H        0.922     0.032     2.562     2.503
    67   1 H        0.910     0.008     2.927     2.676
    68   1 H        0.927    -0.003     3.104     2.755
    69   1 H        0.921     0.031     2.574     2.509
    70   1 H        0.921     0.342     0.597     1.208
    71   1 H        0.926     0.053     2.280     2.361
    72   1 H        0.929     0.068     2.103     2.268
    73   1 H        0.919     0.056     2.241     2.342
    74   1 H        0.857     0.193     1.142     1.675
    75   1 H        0.920     0.025     2.664     2.553
    76   1 H        0.916     0.023     2.695     2.568
    77   1 H        0.927     0.052     2.292     2.367
    78   1 H        0.910     0.025     2.659     2.551
    79   1 H        0.922     0.047     2.357     2.401
    80   1 H        0.929     0.062     2.173     2.305
    81   1 H        0.922     0.009     2.905     2.665
    82   1 H        0.859     0.184     1.191     1.710
    83   1 H        0.928     0.070     2.086     2.259
    84   1 H        0.921     0.072     2.063     2.246
    85   1 H        0.927     0.047     2.360     2.402
    86   1 H        0.911    -0.004     3.133     2.769
    87   1 H        0.928     0.055     2.254     2.348
    88   1 H        0.926     0.044     2.398     2.421
    89   1 H        0.856     0.167     1.292     1.781
    90   1 H        0.861     0.124     1.592     1.976
    91   1 H        0.920     0.062     2.174     2.306
    92   1 H        0.862     0.188     1.168     1.693
    93   1 H        0.927     0.057     2.232     2.336
    94   1 H        0.923     0.068     2.104     2.269
    95   1 H        0.918     0.043     2.405     2.425
    96   1 H        0.923     0.047     2.364     2.404
    97   1 H        0.922     0.046     2.367     2.406
    98   1 H        0.926     0.046     2.367     2.406
    99   1 H        0.926     0.042     2.421     2.433
   100   1 H        0.885     0.024     2.688     2.566
   101   1 H        0.916     0.046     2.366     2.406
   102   1 H        0.924     0.035     2.516     2.480
   103   1 H        0.923     0.036     2.507     2.476
   104   1 H        0.900     0.012     2.864     2.648
   105   1 H        0.915     0.048     2.344     2.395
   106   1 H        0.925     0.042     2.422     2.434
   107   1 H        0.911     0.024     2.669     2.556
   108   1 H        0.924     0.055     2.261     2.352
   109   1 H        0.925     0.035     2.511     2.478
   110   1 H        0.927     0.051     2.310     2.377
   111   1 H        0.859     0.170     1.273     1.768
   112   1 H        0.862     0.145     1.434     1.876
   113   1 H        0.860     0.152     1.385     1.843
   114   1 H        0.858     0.151     1.394     1.850
   115   1 H        0.901     0.063     2.171     2.305
   116   1 H        0.908     0.016     2.803     2.619
   117   1 H        0.925     0.057     2.232     2.336

 Mol. C6AA /au·bohr⁶  :     136769.380643
 Mol. C8AA /au·bohr⁸  :    3097591.917189
 Mol. α(0) /au        :        552.450376


Wiberg/Mayer (AO) data.
largest (>0.10) Wiberg bond orders for each atom

 ---------------------------------------------------------------------------
     #   Z sym  total        # sym  WBO       # sym  WBO       # sym  WBO
 ---------------------------------------------------------------------------
     1   7 N    3.432 --     7 C    1.240     2 C    1.013    59 H    0.858
                             9 O    0.201
     2   6 C    3.977 --     1 N    1.013    51 C    0.955     3 C    0.950
                            60 H    0.941
     3   6 C    3.950 --     4 O    1.709     5 N    1.208     2 C    0.950
     4   8 O    2.027 --     3 C    1.709     5 N    0.182
     5   7 N    3.405 --     3 C    1.208     6 C    0.992    61 H    0.936
                             4 O    0.182
     6   6 C    3.964 --    58 C    0.996     5 N    0.992    62 H    0.938
                            46 C    0.905
     7   6 C    3.946 --     9 O    1.705     1 N    1.240     8 C    0.923
     8   6 C    3.958 --    11 C    0.987    10 N    0.973    63 H    0.933
                             7 C    0.923
     9   8 O    2.065 --     7 C    1.705     1 N    0.201
    10   7 N    3.441 --    12 C    1.277     8 C    0.973    64 H    0.909
                            15 O    0.178
    11   6 C    3.984 --    13 C    1.021     8 C    0.987    66 H    0.967
                            65 H    0.953
    12   6 C    3.940 --    15 O    1.595    10 N    1.277    14 C    0.955
    13   6 C    3.959 --    11 C    1.021    68 H    0.976    67 H    0.963
                            16 C    0.853
    14   6 C    3.985 --    17 N    1.000    18 C    0.982    12 C    0.955
                            69 H    0.946
    15   8 O    1.977 --    12 C    1.595    10 N    0.178
    16   6 C    3.941 --    19 O    1.538    20 O    1.525    13 C    0.853
    17   7 N    3.015 --    21 C    1.448    14 C    1.000    24 O    0.220
                            70 H    0.178
    18   6 C    3.992 --    14 C    0.982    72 H    0.972    71 H    0.959
                            22 C    0.912
    19   8 O    1.853 --    16 C    1.538    20 O    0.226
    20   8 O    1.832 --    16 C    1.525    19 O    0.226
    21   6 C    3.963 --    24 O    1.460    17 N    1.448    23 C    0.977
    22   6 C    3.916 --    25 O    1.679    26 O    1.286    18 C    0.912
    23   6 C    3.946 --    21 C    0.977    27 N    0.961    73 H    0.957
                            28 C    0.941
    24   8 O    1.836 --    21 C    1.460    17 N    0.220
    25   8 O    1.960 --    22 C    1.679    26 O    0.173
    26   8 O    2.266 --    22 C    1.286    70 H    0.677    25 O    0.173
    27   7 N    3.474 --    29 C    1.307    23 C    0.961    74 H    0.906
                            32 O    0.208
    28   6 C    3.991 --    30 C    1.013    75 H    0.980    76 H    0.974
                            23 C    0.941
    29   6 C    3.955 --    32 O    1.658    27 N    1.307    31 C    0.925
    30   6 C    3.994 --    28 C    1.013    33 C    1.003    78 H    0.972
                            77 H    0.958
    31   6 C    3.954 --    35 C    0.998    79 H    0.945    34 N    0.936
                            29 C    0.925
    32   8 O    1.997 --    29 C    1.658    27 N    0.208
    33   6 C    3.992 --    30 C    1.003    36 C    1.002    81 H    0.971
                            80 H    0.964
    34   7 N    3.449 --    37 C    1.294    31 C    0.936    82 H    0.924
                            41 O    0.202
    35   6 C    3.989 --    38 C    1.018    31 C    0.998    83 H    0.962
                            84 H    0.961
    36   6 C    3.986 --    39 N    1.019    33 C    1.002    85 H    0.980
                            86 H    0.964
    37   6 C    3.957 --    41 O    1.640    34 N    1.294    40 C    0.958
    38   6 C    3.983 --    35 C    1.018    42 S    0.995    87 H    0.969
                            88 H    0.964
    39   7 N    3.000 --    36 C    1.019    90 H    0.972    89 H    0.957
    40   6 C    3.963 --    43 N    0.979    37 C    0.958    91 H    0.953
                            44 C    0.932
    41   8 O    1.962 --    37 C    1.640    34 N    0.202
    42  16 S    2.088 --    45 C    1.006    38 C    0.995
    43   7 N    3.437 --    46 C    1.267    40 C    0.979    92 H    0.919
                            49 O    0.189
    44   6 C    3.986 --    48 C    1.008    47 C    1.006    93 H    0.969
                            40 C    0.932
    45   6 C    3.974 --    42 S    1.006    96 H    0.986    94 H    0.977
                            95 H    0.970
    46   6 C    3.941 --    49 O    1.690    43 N    1.267     6 C    0.905
    47   6 C    3.994 --    44 C    1.006    99 H    0.986    98 H    0.981
                            97 H    0.979
    48   6 C    3.988 --    44 C    1.008    50 C    1.005   101 H    0.976
                           100 H    0.969
    49   8 O    2.006 --    46 C    1.690    43 N    0.189
    50   6 C    3.988 --    48 C    1.005   104 H    0.987   103 H    0.986
                           102 H    0.980
    51   6 C    3.991 --    52 C    1.010   105 H    0.976   106 H    0.970
                             2 C    0.955
    52   6 C    3.987 --    53 C    1.015    51 C    1.010   107 H    0.965
                           108 H    0.965
    53   6 C    3.972 --    52 C    1.015   110 H    0.973   109 H    0.968
                            54 N    0.966
    54   7 N    3.301 --    55 C    1.149    53 C    0.966   111 H    0.933
                            56 N    0.170
    55   6 C    3.961 --    56 N    1.758    54 N    1.149    57 N    1.030
    56   7 N    2.982 --    55 C    1.758   112 H    0.933    54 N    0.170
    57   7 N    3.100 --    55 C    1.030   114 H    0.962   113 H    0.959
    58   6 C    3.989 --     6 C    0.996   117 H    0.985   115 H    0.980
                           116 H    0.974
    59   1 H    0.951 --     1 N    0.858
    60   1 H    0.998 --     2 C    0.941
    61   1 H    0.965 --     5 N    0.936
    62   1 H    0.992 --     6 C    0.938
    63   1 H    0.997 --     8 C    0.933
    64   1 H    0.967 --    10 N    0.909
    65   1 H    0.999 --    11 C    0.953
    66   1 H    0.998 --    11 C    0.967
    67   1 H    1.000 --    13 C    0.963
    68   1 H    1.000 --    13 C    0.976
    69   1 H    0.999 --    14 C    0.946
    70   1 H    0.883 --    26 O    0.677    17 N    0.178
    71   1 H    0.997 --    18 C    0.959
    72   1 H    0.995 --    18 C    0.972
    73   1 H    0.997 --    23 C    0.957
    74   1 H    0.963 --    27 N    0.906
    75   1 H    0.999 --    28 C    0.980
    76   1 H    0.999 --    28 C    0.974
    77   1 H    0.997 --    30 C    0.958
    78   1 H    0.999 --    30 C    0.972
    79   1 H    0.998 --    31 C    0.945
    80   1 H    0.996 --    33 C    0.964
    81   1 H    1.000 --    33 C    0.971
    82   1 H    0.966 --    34 N    0.924
    83   1 H    0.995 --    35 C    0.962
    84   1 H    0.995 --    35 C    0.961
    85   1 H    0.997 --    36 C    0.980
    86   1 H    1.000 --    36 C    0.964
    87   1 H    0.997 --    38 C    0.969
    88   1 H    0.998 --    38 C    0.964
    89   1 H    0.972 --    39 N    0.957
    90   1 H    0.985 --    39 N    0.972
    91   1 H    0.996 --    40 C    0.953
    92   1 H    0.965 --    43 N    0.919
    93   1 H    0.996 --    44 C    0.969
    94   1 H    0.995 --    45 C    0.977
    95   1 H    0.998 --    45 C    0.970
    96   1 H    0.998 --    45 C    0.986
    97   1 H    0.998 --    47 C    0.979
    98   1 H    0.998 --    47 C    0.981
    99   1 H    0.998 --    47 C    0.986
   100   1 H    0.999 --    48 C    0.969
   101   1 H    0.998 --    48 C    0.976
   102   1 H    0.999 --    50 C    0.980
   103   1 H    0.999 --    50 C    0.986
   104   1 H    1.000 --    50 C    0.987
   105   1 H    0.998 --    51 C    0.976
   106   1 H    0.998 --    51 C    0.970
   107   1 H    0.999 --    52 C    0.965
   108   1 H    0.996 --    52 C    0.965
   109   1 H    0.999 --    53 C    0.968
   110   1 H    0.997 --    53 C    0.973
   111   1 H    0.971 --    54 N    0.933
   112   1 H    0.979 --    56 N    0.933
   113   1 H    0.977 --    57 N    0.959
   114   1 H    0.977 --    57 N    0.962
   115   1 H    0.996 --    58 C    0.980
   116   1 H    0.999 --    58 C    0.974
   117   1 H    0.997 --    58 C    0.985
 ---------------------------------------------------------------------------

Topologies differ in total number of bonds
Writing topology from bond orders to xtbtopo.mol

molecular dipole:
                 x           y           z       tot (Debye)
 q only:       -1.040      13.258       2.320
   full:       -0.566      13.628       2.301      35.159
molecular quadrupole (traceless):
                xx          xy          yy          xz          yz          zz
 q only:       15.559      46.943     -92.412      40.400    -111.114      76.853
  q+dip:       -1.076      53.195     -90.278      40.942    -115.976      91.354
   full:       -2.263      53.794     -89.123      39.629    -116.851      91.386


           -------------------------------------------------
          | TOTAL ENERGY             -185.512166723179 Eh   |
          | GRADIENT NORM               0.391891968702 Eh/α |
          | HOMO-LUMO GAP               0.497254464079 eV   |
           -------------------------------------------------

------------------------------------------------------------------------
 * finished run on 2026/05/23 at 12:58:49.765     
------------------------------------------------------------------------
 total:
 * wall-time:     0 d,  0 h,  0 min, 12.189 sec
 *  cpu-time:     0 d,  0 h,  0 min, 27.292 sec
 * ratio c/w:     2.239 speedup
 SCF:
 * wall-time:     0 d,  0 h,  0 min, 11.753 sec
 *  cpu-time:     0 d,  0 h,  0 min, 26.285 sec
 * ratio c/w:     2.237 speedup

normal termination of xtb
