      -----------------------------------------------------------      
     |                   =====================                   |     
     |                           x T B                           |     
     |                   =====================                   |     
     |                         S. Grimme                         |     
     |          Mulliken Center for Theoretical Chemistry        |     
     |                    University of Bonn                     |     
      -----------------------------------------------------------      

   * xtb version 6.7.1 (edcfbbe) compiled by 'albert@albert-system' on 2024-07-22

   xtb is free software: you can redistribute it and/or modify it under
   the terms of the GNU Lesser General Public License as published by
   the Free Software Foundation, either version 3 of the License, or
   (at your option) any later version.
   
   xtb is distributed in the hope that it will be useful,
   but WITHOUT ANY WARRANTY; without even the implied warranty of
   MERCHANTABILITY or FITNESS FOR A PARTICULAR PURPOSE.  See the
   GNU Lesser General Public License for more details.
   
   Cite this work as:
   * C. Bannwarth, E. Caldeweyher, S. Ehlert, A. Hansen, P. Pracht,
     J. Seibert, S. Spicher, S. Grimme, WIREs Comput. Mol. Sci., 2020, 11,
     e01493. DOI: 10.1002/wcms.1493
   
   for GFN2-xTB:
   * C. Bannwarth, S. Ehlert and S. Grimme., J. Chem. Theory Comput., 2019,
     15, 1652-1671. DOI: 10.1021/acs.jctc.8b01176
   for GFN1-xTB:
   * S. Grimme, C. Bannwarth, P. Shushkov, J. Chem. Theory Comput., 2017,
     13, 1989-2009. DOI: 10.1021/acs.jctc.7b00118
   for GFN0-xTB:
   * P. Pracht, E. Caldeweyher, S. Ehlert, S. Grimme, ChemRxiv, 2019, preprint.
     DOI: 10.26434/chemrxiv.8326202.v1
   for GFN-FF:
   * S. Spicher and S. Grimme, Angew. Chem. Int. Ed., 2020, 59, 15665-15673.
     DOI: 10.1002/anie.202004239
   
   for ALPB and GBSA implicit solvation:
   * S. Ehlert, M. Stahn, S. Spicher, S. Grimme, J. Chem. Theory Comput.,
     2021, 17, 4250-4261. DOI: 10.1021/acs.jctc.1c00471
   
   for ddCOSMO and CPCM-X implicit solvation:
   * M. Stahn, S. Ehlert, S. Grimme, J. Phys. Chem. A,
     2023, XX, XXXX-XXXX. DOI: 10.1021/acs.jpca.3c04382
   
   for DFT-D4:
   * E. Caldeweyher, C. Bannwarth and S. Grimme, J. Chem. Phys., 2017,
     147, 034112. DOI: 10.1063/1.4993215
   * E. Caldeweyher, S. Ehlert, A. Hansen, H. Neugebauer, S. Spicher,
     C. Bannwarth and S. Grimme, J. Chem. Phys., 2019, 150, 154122.
     DOI: 10.1063/1.5090222
   * E. Caldeweyher, J.-M. Mewes, S. Ehlert and S. Grimme, Phys. Chem. Chem. Phys.
     2020, 22, 8499-8512. DOI: 10.1039/D0CP00502A
   
   for sTDA-xTB:
   * S. Grimme and C. Bannwarth, J. Chem. Phys., 2016, 145, 054103.
     DOI: 10.1063/1.4959605
   
   in the mass-spec context:
   * V. Asgeirsson, C. Bauer and S. Grimme, Chem. Sci., 2017, 8, 4879.
     DOI: 10.1039/c7sc00601b
   * J. Koopman and S. Grimme, ACS Omega 2019, 4, 12, 15120-15133.
     DOI: 10.1021/acsomega.9b02011
   
   for metadynamics refer to:
   * S. Grimme, J. Chem. Theory Comput., 2019, 155, 2847-2862
     DOI: 10.1021/acs.jctc.9b00143
   
   for SPH calculations refer to:
   * S. Spicher and S. Grimme, J. Chem. Theory Comput., 2021, 17, 1701-1714
     DOI: 10.1021/acs.jctc.0c01306
   
   for ONIOM refer to:
   * C. Plett, A. Katbashev, S. Ehlert, S. Grimme, M. Bursch,
     Phys. Chem. Chem. Phys., 2023, 25, 17860-17868. DOI: 10.1039/D3CP02178E
   
   for DIPRO refer to:
   * J. Kohn, N. Gildemeister, S. Grimme, D. Fazzi, A. Hansen,
     J. Chem. Phys., 2023, just accepted.
   
   for PTB refer to:
   * S. Grimme, M. Mueller, A. Hansen, J. Chem. Phys., 2023, 158, 124111.
     DOI: 10.1063/5.0137838
   
   with help from (in alphabetical order)
   P. Atkinson, C. Bannwarth, F. Bohle, G. Brandenburg, E. Caldeweyher
   M. Checinski, S. Dohm, S. Ehlert, S. Ehrlich, I. Gerasimov, C. Hölzer
   A. Katbashev, J. Kohn, J. Koopman, C. Lavigne, S. Lehtola, F. März, M. Müller,
   F. Musil, H. Neugebauer, J. Pisarek, C. Plett, P. Pracht, F. Pultar,
   J. Seibert, P. Shushkov, S. Spicher, M. Stahn, M. Steiner, T. Strunk,
   J. Stückrath, T. Rose, and J. Unsleber
   
 * started run on 2026/05/23 at 13:00:24.997     
   ID    Z sym.   atoms
    1    7 N      1, 5, 10, 17, 27, 34, 39, 43, 54, 56, 57
    2    6 C      2, 3, 6-8, 11-14, 16, 18, 21-23, 28-31, 33, 35-38, 40,
                  44-48, 50-53, 55, 58
    3    8 O      4, 9, 15, 19, 20, 24-26, 32, 41, 49
    4   16 S      42
    5    1 H      59-117

           -------------------------------------------------
          |                Calculation Setup                |
           -------------------------------------------------

          program call               : /home/xchen/software/xtb-6.7.1/xtb-dist/bin/xtb /home/xchen/Test/benchmark/md_sampled/04_7_0231_n2/snap_0163.xyz --charge -2 --gfn 2 --norestart
          coordinate file            : /home/xchen/Test/benchmark/md_sampled/04_7_0231_n2/snap_0163.xyz
          omp threads                :                    48


           -------------------------------------------------
          |                 G F N 2 - x T B                 |
           -------------------------------------------------

        Reference                      10.1021/acs.jctc.8b01176
      * Hamiltonian:
        H0-scaling (s, p, d)           1.850000    2.230000    2.230000
        zeta-weighting                 0.500000
      * Dispersion:
        s8                             2.700000
        a1                             0.520000
        a2                             5.000000
        s9                             5.000000
      * Repulsion:
        kExp                           1.500000    1.000000
        rExp                           1.000000
      * Coulomb:
        alpha                          2.000000
        third order                    shell-resolved
        anisotropic                    true
        a3                             3.000000
        a5                             4.000000
        cn-shift                       1.200000
        cn-exp                         4.000000
        max-rad                        5.000000


          ...................................................
          :                      SETUP                      :
          :.................................................:
          :  # basis functions                 297          :
          :  # atomic orbitals                 296          :
          :  # shells                          176          :
          :  # electrons                       328          :
          :  max. iterations                   250          :
          :  Hamiltonian                  GFN2-xTB          :
          :  restarted?                      false          :
          :  GBSA solvation                  false          :
          :  PC potential                    false          :
          :  electronic temp.          300.0000000     K    :
          :  accuracy                    1.0000000          :
          :  -> integral cutoff          0.2500000E+02      :
          :  -> integral neglect         0.1000000E-07      :
          :  -> SCF convergence          0.1000000E-05 Eh   :
          :  -> wf. convergence          0.1000000E-03 e    :
          :  Broyden damping             0.4000000          :
          :  net charge                         -2          :
          :  unpaired electrons                  0          :
          ...................................................

 iter      E             dE          RMSdq      gap      omega  full diag
   1   -186.8808921 -0.186881E+03  0.417E+00    3.99       0.0  T
   2   -187.4149145 -0.534022E+00  0.221E+00    2.41       1.0  T
   3   -187.4515425 -0.366280E-01  0.122E+00    1.31       1.0  T
   4   -187.1069831  0.344559E+00  0.112E+00    0.01       1.0  T
   5   -187.4595795 -0.352596E+00  0.290E-01    1.34       1.0  T
   6   -187.4648830 -0.530355E-02  0.157E-01    1.23       1.0  T
   7   -187.4649802 -0.972200E-04  0.119E-01    1.23       1.0  T
   8   -187.4654202 -0.439981E-03  0.911E-02    1.11       1.0  T
   9   -187.4656762 -0.255990E-03  0.762E-02    0.99       1.0  T
  10   -187.4658291 -0.152875E-03  0.638E-02    0.88       1.0  T
  11   -187.4660000 -0.170907E-03  0.479E-02    0.73       1.0  T
  12   -187.4661737 -0.173754E-03  0.220E-02    0.48       1.0  T
  13   -187.4662350 -0.612574E-04  0.198E-03    0.31       4.7  T
  14   -187.4662312  0.374767E-05  0.425E-03    0.29       2.2  T
  15   -187.4662346 -0.335610E-05  0.159E-03    0.31       5.8  T
  16   -187.4662351 -0.495284E-06  0.182E-04    0.31      50.9  T
  17   -187.4662351 -0.768921E-09  0.861E-05    0.31     107.4  T

   *** convergence criteria satisfied after 17 iterations ***

         #    Occupation            Energy/Eh            Energy/eV
      -------------------------------------------------------------
         1        2.0000           -0.6052377             -16.4694
       ...           ...                  ...                  ...
       158        2.0000           -0.2268315              -6.1724
       159        2.0000           -0.2076611              -5.6507
       160        2.0000           -0.1946121              -5.2957
       161        2.0000           -0.1752655              -4.7692
       162        2.0000           -0.1585253              -4.3137
       163        2.0000           -0.1480962              -4.0299
       164        1.9946           -0.1364306              -3.7125 (HOMO)
       165        0.0053           -0.1251889              -3.4066 (LUMO)
       166        0.0001           -0.1211438              -3.2965
       167                         -0.1064499              -2.8966
       168                         -0.1013435              -2.7577
       169                         -0.0901252              -2.4524
       ...                                ...                  ...
       296                          0.9942647              27.0553
      -------------------------------------------------------------
                  HL-Gap            0.0112417 Eh            0.3059 eV
             Fermi-level           -0.1308165 Eh           -3.5597 eV

 SCC (total)                   0 d,  0 h,  0 min, 16.651 sec
 SCC setup                      ...        0 min,  0.032 sec (  0.194%)
 Dispersion                     ...        0 min,  0.122 sec (  0.732%)
 classical contributions        ...        0 min,  0.006 sec (  0.036%)
 integral evaluation            ...        0 min,  0.339 sec (  2.036%)
 iterations                     ...        0 min, 15.592 sec ( 93.638%)
 molecular gradient             ...        0 min,  0.549 sec (  3.296%)
 printout                       ...        0 min,  0.011 sec (  0.068%)

         :::::::::::::::::::::::::::::::::::::::::::::::::::::
         ::                     SUMMARY                     ::
         :::::::::::::::::::::::::::::::::::::::::::::::::::::
         :: total energy            -185.505419043142 Eh    ::
         :: gradient norm              0.404069658187 Eh/a0 ::
         :: HOMO-LUMO gap              0.305902947443 eV    ::
         ::.................................................::
         :: SCC energy              -187.459903802024 Eh    ::
         :: -> isotropic ES            0.714444828248 Eh    ::
         :: -> anisotropic ES          0.018100764337 Eh    ::
         :: -> anisotropic XC          0.062538733917 Eh    ::
         :: -> dispersion             -0.134655269991 Eh    ::
         :: repulsion energy           1.954484758883 Eh    ::
         :: add. restraining           0.000000000000 Eh    ::
         :: total charge              -2.000000001279 e     ::
         :::::::::::::::::::::::::::::::::::::::::::::::::::::

           -------------------------------------------------
          |                Property Printout                |
           -------------------------------------------------

    * Orbital Energies and Occupations

         #    Occupation            Energy/Eh            Energy/eV
      -------------------------------------------------------------
         1        2.0000           -0.6052377             -16.4694
       ...           ...                  ...                  ...
       152        2.0000           -0.2521761              -6.8621
       153        2.0000           -0.2494313              -6.7874
       154        2.0000           -0.2459278              -6.6920
       155        2.0000           -0.2438448              -6.6354
       156        2.0000           -0.2390393              -6.5046
       157        2.0000           -0.2311594              -6.2902
       158        2.0000           -0.2268315              -6.1724
       159        2.0000           -0.2076611              -5.6507
       160        2.0000           -0.1946121              -5.2957
       161        2.0000           -0.1752655              -4.7692
       162        2.0000           -0.1585253              -4.3137
       163        2.0000           -0.1480962              -4.0299
       164        1.9946           -0.1364306              -3.7125 (HOMO)
       165        0.0053           -0.1251889              -3.4066 (LUMO)
       166        0.0001           -0.1211438              -3.2965
       167                         -0.1064499              -2.8966
       168                         -0.1013435              -2.7577
       169                         -0.0901252              -2.4524
       170                         -0.0874126              -2.3786
       171                         -0.0840883              -2.2882
       172                         -0.0742425              -2.0202
       173                         -0.0642151              -1.7474
       174                         -0.0330921              -0.9005
       175                         -0.0282187              -0.7679
       ...                                ...                  ...
       296                          0.9942647              27.0553
      -------------------------------------------------------------
                  HL-Gap            0.0112417 Eh            0.3059 eV
             Fermi-level           -0.1308165 Eh           -3.5597 eV

     #   Z          covCN         q      C6AA      α(0)
     1   7 N        2.685    -0.219    25.776     7.540
     2   6 C        3.785     0.024    20.186     6.400
     3   6 C        2.750     0.283    22.211     7.717
     4   8 O        0.856    -0.444    22.574     6.370
     5   7 N        2.683    -0.166    24.594     7.365
     6   6 C        3.759     0.012    20.414     6.441
     7   6 C        2.760     0.282    22.222     7.720
     8   6 C        3.798     0.025    20.149     6.391
     9   8 O        0.860    -0.444    22.581     6.371
    10   7 N        2.695    -0.208    25.534     7.505
    11   6 C        3.801    -0.046    21.402     6.587
    12   6 C        2.769     0.276    22.330     7.739
    13   6 C        3.776    -0.076    21.983     6.680
    14   6 C        3.793     0.048    19.783     6.334
    15   8 O        0.859    -0.495    23.675     6.524
    16   6 C        2.685     0.351    21.045     7.507
    17   7 N        2.689    -0.200    25.336     7.476
    18   6 C        3.659    -0.143    23.572     6.967
    19   8 O        0.854    -0.624    26.718     6.930
    20   8 O        0.859    -0.561    25.174     6.727
    21   6 C        2.797     0.272    22.406     7.754
    22   6 C        2.525     0.381    20.647     7.425
    23   6 C        3.807     0.030    20.058     6.376
    24   8 O        0.862    -0.497    23.720     6.530
    25   8 O        0.857    -0.488    23.512     6.501
    26   8 O        0.857    -0.551    24.943     6.696
    27   7 N        2.729    -0.189    25.102     7.441
    28   6 C        3.805    -0.058    21.605     6.617
    29   6 C        2.756     0.266    22.513     7.770
    30   6 C        3.793    -0.053    21.542     6.610
    31   6 C        3.793     0.029    20.089     6.383
    32   8 O        0.858    -0.423    22.140     6.309
    33   6 C        3.797    -0.052    21.508     6.604
    34   7 N        2.690    -0.170    24.668     7.377
    35   6 C        3.791    -0.066    21.772     6.645
    36   6 C        3.733     0.008    20.528     6.467
    37   6 C        2.745     0.278    22.295     7.731
    38   6 C        3.787     0.000    20.595     6.464
    39   7 N        2.616    -0.359    29.257     8.033
    40   6 C        3.738     0.012    20.461     6.454
    41   8 O        0.857    -0.450    22.710     6.389
    42  16 S        1.952    -0.218   150.378    20.639
    43   7 N        2.658    -0.233    26.107     7.589
    44   6 C        3.820    -0.012    20.776     6.487
    45   6 C        3.735    -0.056    21.679     6.645
    46   6 C        2.739     0.266    22.518     7.769
    47   6 C        3.721    -0.093    22.400     6.760
    48   6 C        3.797    -0.066    21.778     6.645
    49   8 O        0.867    -0.428    22.252     6.325
    50   6 C        3.750    -0.106    22.594     6.779
    51   6 C        3.805    -0.057    21.595     6.616
    52   6 C        3.784    -0.065    21.767     6.646
    53   6 C        3.717     0.006    20.604     6.484
    54   7 N        2.687    -0.210    25.569     7.510
    55   6 C        2.731     0.212    23.501     7.937
    56   7 N        1.775    -0.462    33.165     8.528
    57   7 N        2.641    -0.299    27.709     7.818
    58   6 C        3.731    -0.125    23.003     6.846
    59   1 H        0.856     0.213     1.045     1.602
    60   1 H        0.919     0.046     2.370     2.408
    61   1 H        0.857     0.194     1.138     1.671
    62   1 H        0.916     0.088     1.897     2.154
    63   1 H        0.918     0.052     2.291     2.367
    64   1 H        0.861     0.177     1.231     1.738
    65   1 H        0.914     0.031     2.568     2.506
    66   1 H        0.929     0.051     2.309     2.376
    67   1 H        0.920     0.034     2.532     2.489
    68   1 H        0.903    -0.004     3.125     2.766
    69   1 H        0.922     0.057     2.231     2.336
    70   1 H        0.859     0.236     0.941     1.520
    71   1 H        0.924     0.012     2.856     2.643
    72   1 H        0.920     0.021     2.715     2.577
    73   1 H        0.924     0.064     2.153     2.295
    74   1 H        0.854     0.204     1.085     1.632
    75   1 H        0.916     0.045     2.389     2.418
    76   1 H        0.925     0.037     2.490     2.468
    77   1 H        0.914     0.028     2.613     2.528
    78   1 H        0.925     0.036     2.509     2.477
    79   1 H        0.928     0.046     2.369     2.407
    80   1 H        0.915     0.017     2.786     2.611
    81   1 H        0.921     0.008     2.921     2.673
    82   1 H        0.858     0.191     1.154     1.683
    83   1 H        0.916     0.069     2.103     2.268
    84   1 H        0.915     0.068     2.109     2.271
    85   1 H        0.925     0.051     2.304     2.374
    86   1 H        0.927     0.027     2.622     2.532
    87   1 H        0.926     0.040     2.445     2.445
    88   1 H        0.924     0.042     2.425     2.435
    89   1 H        0.851     0.185     1.187     1.707
    90   1 H        0.860     0.114     1.671     2.025
    91   1 H        0.924     0.086     1.921     2.168
    92   1 H        0.859     0.175     1.242     1.746
    93   1 H        0.915     0.043     2.416     2.431
    94   1 H        0.927     0.068     2.108     2.271
    95   1 H        0.928     0.054     2.271     2.357
    96   1 H        0.916     0.037     2.493     2.469
    97   1 H        0.920     0.044     2.399     2.422
    98   1 H        0.916     0.028     2.610     2.527
    99   1 H        0.910     0.029     2.609     2.527
   100   1 H        0.927     0.034     2.533     2.489
   101   1 H        0.925     0.051     2.313     2.378
   102   1 H        0.925     0.030     2.587     2.515
   103   1 H        0.925     0.044     2.394     2.420
   104   1 H        0.928     0.039     2.466     2.456
   105   1 H        0.919     0.057     2.237     2.339
   106   1 H        0.926     0.049     2.330     2.387
   107   1 H        0.927     0.049     2.332     2.388
   108   1 H        0.913     0.047     2.363     2.404
   109   1 H        0.913     0.029     2.605     2.524
   110   1 H        0.928     0.055     2.256     2.349
   111   1 H        0.860     0.170     1.272     1.767
   112   1 H        0.858     0.108     1.724     2.057
   113   1 H        0.860     0.171     1.268     1.764
   114   1 H        0.861     0.186     1.179     1.701
   115   1 H        0.927     0.096     1.824     2.112
   116   1 H        0.929     0.058     2.223     2.332
   117   1 H        0.916     0.036     2.504     2.475

 Mol. C6AA /au·bohr⁶  :     136603.937388
 Mol. C8AA /au·bohr⁸  :    3095038.777249
 Mol. α(0) /au        :        552.062722


Wiberg/Mayer (AO) data.
largest (>0.10) Wiberg bond orders for each atom

 ---------------------------------------------------------------------------
     #   Z sym  total        # sym  WBO       # sym  WBO       # sym  WBO
 ---------------------------------------------------------------------------
     1   7 N    3.416 --     7 C    1.271     2 C    0.952    59 H    0.882
                             9 O    0.199
     2   6 C    3.969 --    51 C    0.985     3 C    0.959     1 N    0.952
                            60 H    0.941
     3   6 C    3.951 --     4 O    1.662     5 N    1.259     2 C    0.959
     4   8 O    1.977 --     3 C    1.662     5 N    0.188
     5   7 N    3.438 --     3 C    1.259     6 C    0.981    61 H    0.928
                             4 O    0.188
     6   6 C    3.959 --     5 N    0.981    58 C    0.979    46 C    0.944
                            62 H    0.933
     7   6 C    3.948 --     9 O    1.667     1 N    1.271     8 C    0.941
     8   6 C    3.953 --    11 C    1.001    63 H    0.947     7 C    0.941
                            10 N    0.929
     9   8 O    2.005 --     7 C    1.667     1 N    0.199
    10   7 N    3.413 --    12 C    1.263    64 H    0.931     8 C    0.929
                            15 O    0.175
    11   6 C    3.983 --     8 C    1.001    13 C    0.987    66 H    0.976
                            65 H    0.960
    12   6 C    3.945 --    15 O    1.570    10 N    1.263    14 C    0.978
    13   6 C    3.958 --    11 C    0.987    68 H    0.972    67 H    0.965
                            16 C    0.904
    14   6 C    3.950 --    18 C    0.979    12 C    0.978    69 H    0.949
                            17 N    0.933
    15   8 O    1.931 --    12 C    1.570    10 N    0.175
    16   6 C    3.944 --    20 O    1.571    19 O    1.448    13 C    0.904
    17   7 N    3.477 --    21 C    1.358    14 C    0.933    70 H    0.878
                            24 O    0.197
    18   6 C    3.900 --    14 C    0.979    72 H    0.978    71 H    0.976
                            22 C    0.679
    19   8 O    1.786 --    16 C    1.448    20 O    0.231
    20   8 O    1.874 --    16 C    1.571    19 O    0.231
    21   6 C    3.956 --    24 O    1.575    17 N    1.358    23 C    0.952
    22   6 C    3.933 --    25 O    1.670    26 O    1.550    18 C    0.679
    23   6 C    3.969 --    27 N    0.992    28 C    0.963    21 C    0.952
                            73 H    0.949
    24   8 O    1.958 --    21 C    1.575    17 N    0.197
    25   8 O    2.016 --    22 C    1.670    26 O    0.228
    26   8 O    1.941 --    22 C    1.550    25 O    0.228
    27   7 N    3.461 --    29 C    1.288    23 C    0.992    74 H    0.873
                            32 O    0.209
    28   6 C    3.993 --    30 C    1.005    76 H    0.973    75 H    0.969
                            23 C    0.963
    29   6 C    3.953 --    32 O    1.694    27 N    1.288    31 C    0.899
    30   6 C    3.992 --    33 C    1.006    28 C    1.005    78 H    0.977
                            77 H    0.965
    31   6 C    3.964 --    35 C    1.002    34 N    0.977    79 H    0.947
                            29 C    0.899
    32   8 O    2.029 --    29 C    1.694    27 N    0.209
    33   6 C    3.988 --    30 C    1.006    36 C    0.995    81 H    0.969
                            80 H    0.964
    34   7 N    3.451 --    37 C    1.284    31 C    0.977    82 H    0.900
                            41 O    0.194
    35   6 C    3.986 --    31 C    1.002    38 C    0.987    84 H    0.967
                            83 H    0.961
    36   6 C    3.985 --    39 N    1.023    33 C    0.995    85 H    0.974
                            86 H    0.972
    37   6 C    3.952 --    41 O    1.647    34 N    1.284    40 C    0.954
    38   6 C    3.977 --    42 S    1.020    35 C    0.987    87 H    0.970
                            88 H    0.969
    39   7 N    2.993 --    36 C    1.023    90 H    0.975    89 H    0.928
    40   6 C    3.944 --    91 H    0.961    44 C    0.955    37 C    0.954
                            43 N    0.921
    41   8 O    1.976 --    37 C    1.647    34 N    0.194
    42  16 S    2.098 --    38 C    1.020    45 C    0.996
    43   7 N    3.393 --    46 C    1.227    92 H    0.928    40 C    0.921
                            49 O    0.194
    44   6 C    3.984 --    47 C    1.006    48 C    1.000    93 H    0.966
                            40 C    0.955
    45   6 C    3.979 --    42 S    0.996    96 H    0.990    94 H    0.984
                            95 H    0.980
    46   6 C    3.943 --    49 O    1.706    43 N    1.227     6 C    0.944
    47   6 C    3.991 --    44 C    1.006    99 H    0.989    98 H    0.983
                            97 H    0.982
    48   6 C    3.987 --    50 C    1.010    44 C    1.000   100 H    0.970
                           101 H    0.970
    49   8 O    2.021 --    46 C    1.706    43 N    0.194
    50   6 C    3.992 --    48 C    1.010   104 H    0.989   102 H    0.987
                           103 H    0.986
    51   6 C    3.991 --    52 C    1.023     2 C    0.985   105 H    0.967
                           106 H    0.965
    52   6 C    3.992 --    51 C    1.023    53 C    0.982   108 H    0.974
                           107 H    0.973
    53   6 C    3.971 --    54 N    1.003    52 C    0.982   110 H    0.976
                           109 H    0.962
    54   7 N    3.339 --    55 C    1.174    53 C    1.003   111 H    0.926
                            56 N    0.143
    55   6 C    3.956 --    56 N    1.599    54 N    1.174    57 N    1.149
    56   7 N    2.854 --    55 C    1.599   112 H    0.959    54 N    0.143
    57   7 N    3.215 --    55 C    1.149   113 H    0.946   114 H    0.943
    58   6 C    3.982 --   116 H    0.985   117 H    0.983     6 C    0.979
                           115 H    0.975
    59   1 H    0.955 --     1 N    0.882
    60   1 H    0.998 --     2 C    0.941
    61   1 H    0.962 --     5 N    0.928
    62   1 H    0.992 --     6 C    0.933
    63   1 H    0.997 --     8 C    0.947
    64   1 H    0.969 --    10 N    0.931
    65   1 H    0.999 --    11 C    0.960
    66   1 H    0.996 --    11 C    0.976
    67   1 H    0.999 --    13 C    0.965
    68   1 H    1.000 --    13 C    0.972
    69   1 H    0.996 --    14 C    0.949
    70   1 H    0.944 --    17 N    0.878
    71   1 H    1.000 --    18 C    0.976
    72   1 H    0.999 --    18 C    0.978
    73   1 H    0.996 --    23 C    0.949
    74   1 H    0.958 --    27 N    0.873
    75   1 H    0.997 --    28 C    0.969
    76   1 H    0.999 --    28 C    0.973
    77   1 H    0.999 --    30 C    0.965
    78   1 H    0.999 --    30 C    0.977
    79   1 H    0.997 --    31 C    0.947
    80   1 H    1.000 --    33 C    0.964
    81   1 H    1.000 --    33 C    0.969
    82   1 H    0.963 --    34 N    0.900
    83   1 H    0.995 --    35 C    0.961
    84   1 H    0.995 --    35 C    0.967
    85   1 H    0.997 --    36 C    0.974
    86   1 H    0.999 --    36 C    0.972
    87   1 H    0.998 --    38 C    0.970
    88   1 H    0.998 --    38 C    0.969
    89   1 H    0.966 --    39 N    0.928
    90   1 H    0.987 --    39 N    0.975
    91   1 H    0.992 --    40 C    0.961
    92   1 H    0.969 --    43 N    0.928
    93   1 H    0.997 --    44 C    0.966
    94   1 H    0.995 --    45 C    0.984
    95   1 H    0.997 --    45 C    0.980
    96   1 H    0.999 --    45 C    0.990
    97   1 H    0.998 --    47 C    0.982
    98   1 H    0.999 --    47 C    0.983
    99   1 H    0.999 --    47 C    0.989
   100   1 H    0.999 --    48 C    0.970
   101   1 H    0.997 --    48 C    0.970
   102   1 H    0.999 --    50 C    0.987
   103   1 H    0.998 --    50 C    0.986
   104   1 H    0.998 --    50 C    0.989
   105   1 H    0.997 --    51 C    0.967
   106   1 H    0.997 --    51 C    0.965
   107   1 H    0.998 --    52 C    0.973
   108   1 H    0.998 --    52 C    0.974
   109   1 H    0.999 --    53 C    0.962
   110   1 H    0.997 --    53 C    0.976
   111   1 H    0.971 --    54 N    0.926
   112   1 H    0.988 --    56 N    0.959
   113   1 H    0.971 --    57 N    0.946
   114   1 H    0.965 --    57 N    0.943
   115   1 H    0.991 --    58 C    0.975
   116   1 H    0.996 --    58 C    0.985
   117   1 H    0.999 --    58 C    0.983
 ---------------------------------------------------------------------------

Topologies differ in total number of bonds
Writing topology from bond orders to xtbtopo.mol

molecular dipole:
                 x           y           z       tot (Debye)
 q only:        1.093      14.828       1.568
   full:        1.456      15.034       1.900      38.693
molecular quadrupole (traceless):
                xx          xy          yy          xz          yz          zz
 q only:       -0.245      19.213    -102.208      41.765     -97.882     102.452
  q+dip:       -9.626      32.680     -97.692      32.370    -104.789     107.317
   full:      -10.723      32.720     -97.627      31.400    -105.437     108.349


           -------------------------------------------------
          | TOTAL ENERGY             -185.505419043142 Eh   |
          | GRADIENT NORM               0.404069658187 Eh/α |
          | HOMO-LUMO GAP               0.305902947443 eV   |
           -------------------------------------------------

------------------------------------------------------------------------
 * finished run on 2026/05/23 at 13:00:42.581     
------------------------------------------------------------------------
 total:
 * wall-time:     0 d,  0 h,  0 min, 17.583 sec
 *  cpu-time:     0 d,  0 h,  0 min, 40.875 sec
 * ratio c/w:     2.325 speedup
 SCF:
 * wall-time:     0 d,  0 h,  0 min, 16.667 sec
 *  cpu-time:     0 d,  0 h,  0 min, 39.002 sec
 * ratio c/w:     2.340 speedup

normal termination of xtb
