      -----------------------------------------------------------      
     |                   =====================                   |     
     |                           x T B                           |     
     |                   =====================                   |     
     |                         S. Grimme                         |     
     |          Mulliken Center for Theoretical Chemistry        |     
     |                    University of Bonn                     |     
      -----------------------------------------------------------      

   * xtb version 6.7.1 (edcfbbe) compiled by 'albert@albert-system' on 2024-07-22

   xtb is free software: you can redistribute it and/or modify it under
   the terms of the GNU Lesser General Public License as published by
   the Free Software Foundation, either version 3 of the License, or
   (at your option) any later version.
   
   xtb is distributed in the hope that it will be useful,
   but WITHOUT ANY WARRANTY; without even the implied warranty of
   MERCHANTABILITY or FITNESS FOR A PARTICULAR PURPOSE.  See the
   GNU Lesser General Public License for more details.
   
   Cite this work as:
   * C. Bannwarth, E. Caldeweyher, S. Ehlert, A. Hansen, P. Pracht,
     J. Seibert, S. Spicher, S. Grimme, WIREs Comput. Mol. Sci., 2020, 11,
     e01493. DOI: 10.1002/wcms.1493
   
   for GFN2-xTB:
   * C. Bannwarth, S. Ehlert and S. Grimme., J. Chem. Theory Comput., 2019,
     15, 1652-1671. DOI: 10.1021/acs.jctc.8b01176
   for GFN1-xTB:
   * S. Grimme, C. Bannwarth, P. Shushkov, J. Chem. Theory Comput., 2017,
     13, 1989-2009. DOI: 10.1021/acs.jctc.7b00118
   for GFN0-xTB:
   * P. Pracht, E. Caldeweyher, S. Ehlert, S. Grimme, ChemRxiv, 2019, preprint.
     DOI: 10.26434/chemrxiv.8326202.v1
   for GFN-FF:
   * S. Spicher and S. Grimme, Angew. Chem. Int. Ed., 2020, 59, 15665-15673.
     DOI: 10.1002/anie.202004239
   
   for ALPB and GBSA implicit solvation:
   * S. Ehlert, M. Stahn, S. Spicher, S. Grimme, J. Chem. Theory Comput.,
     2021, 17, 4250-4261. DOI: 10.1021/acs.jctc.1c00471
   
   for ddCOSMO and CPCM-X implicit solvation:
   * M. Stahn, S. Ehlert, S. Grimme, J. Phys. Chem. A,
     2023, XX, XXXX-XXXX. DOI: 10.1021/acs.jpca.3c04382
   
   for DFT-D4:
   * E. Caldeweyher, C. Bannwarth and S. Grimme, J. Chem. Phys., 2017,
     147, 034112. DOI: 10.1063/1.4993215
   * E. Caldeweyher, S. Ehlert, A. Hansen, H. Neugebauer, S. Spicher,
     C. Bannwarth and S. Grimme, J. Chem. Phys., 2019, 150, 154122.
     DOI: 10.1063/1.5090222
   * E. Caldeweyher, J.-M. Mewes, S. Ehlert and S. Grimme, Phys. Chem. Chem. Phys.
     2020, 22, 8499-8512. DOI: 10.1039/D0CP00502A
   
   for sTDA-xTB:
   * S. Grimme and C. Bannwarth, J. Chem. Phys., 2016, 145, 054103.
     DOI: 10.1063/1.4959605
   
   in the mass-spec context:
   * V. Asgeirsson, C. Bauer and S. Grimme, Chem. Sci., 2017, 8, 4879.
     DOI: 10.1039/c7sc00601b
   * J. Koopman and S. Grimme, ACS Omega 2019, 4, 12, 15120-15133.
     DOI: 10.1021/acsomega.9b02011
   
   for metadynamics refer to:
   * S. Grimme, J. Chem. Theory Comput., 2019, 155, 2847-2862
     DOI: 10.1021/acs.jctc.9b00143
   
   for SPH calculations refer to:
   * S. Spicher and S. Grimme, J. Chem. Theory Comput., 2021, 17, 1701-1714
     DOI: 10.1021/acs.jctc.0c01306
   
   for ONIOM refer to:
   * C. Plett, A. Katbashev, S. Ehlert, S. Grimme, M. Bursch,
     Phys. Chem. Chem. Phys., 2023, 25, 17860-17868. DOI: 10.1039/D3CP02178E
   
   for DIPRO refer to:
   * J. Kohn, N. Gildemeister, S. Grimme, D. Fazzi, A. Hansen,
     J. Chem. Phys., 2023, just accepted.
   
   for PTB refer to:
   * S. Grimme, M. Mueller, A. Hansen, J. Chem. Phys., 2023, 158, 124111.
     DOI: 10.1063/5.0137838
   
   with help from (in alphabetical order)
   P. Atkinson, C. Bannwarth, F. Bohle, G. Brandenburg, E. Caldeweyher
   M. Checinski, S. Dohm, S. Ehlert, S. Ehrlich, I. Gerasimov, C. Hölzer
   A. Katbashev, J. Kohn, J. Koopman, C. Lavigne, S. Lehtola, F. März, M. Müller,
   F. Musil, H. Neugebauer, J. Pisarek, C. Plett, P. Pracht, F. Pultar,
   J. Seibert, P. Shushkov, S. Spicher, M. Stahn, M. Steiner, T. Strunk,
   J. Stückrath, T. Rose, and J. Unsleber
   
 * started run on 2026/05/23 at 12:23:30.577     
   ID    Z sym.   atoms
    1    7 N      1, 5, 10, 18, 28, 30, 37-39, 41, 47, 48, 56
    2    6 C      2, 3, 6-8, 11-14, 16, 17, 19-25, 27, 29, 31-34, 36, 40,
                  42-45, 49, 51-55
    3    8 O      4, 9, 15, 26, 35, 46, 50
    4    1 H      57-115

           -------------------------------------------------
          |                Calculation Setup                |
           -------------------------------------------------

          program call               : /home/xchen/software/xtb-6.7.1/xtb-dist/bin/xtb /home/xchen/Test/benchmark/md_sampled/03_6_0978_0/snap_0002.xyz --charge 0 --gfn 2 --norestart
          coordinate file            : /home/xchen/Test/benchmark/md_sampled/03_6_0978_0/snap_0002.xyz
          omp threads                :                    48


           -------------------------------------------------
          |                 G F N 2 - x T B                 |
           -------------------------------------------------

        Reference                      10.1021/acs.jctc.8b01176
      * Hamiltonian:
        H0-scaling (s, p, d)           1.850000    2.230000    2.230000
        zeta-weighting                 0.500000
      * Dispersion:
        s8                             2.700000
        a1                             0.520000
        a2                             5.000000
        s9                             5.000000
      * Repulsion:
        kExp                           1.500000    1.000000
        rExp                           1.000000
      * Coulomb:
        alpha                          2.000000
        third order                    shell-resolved
        anisotropic                    true
        a3                             3.000000
        a5                             4.000000
        cn-shift                       1.200000
        cn-exp                         4.000000
        max-rad                        5.000000


          ...................................................
          :                      SETUP                      :
          :.................................................:
          :  # basis functions                 283          :
          :  # atomic orbitals                 283          :
          :  # shells                          171          :
          :  # electrons                       310          :
          :  max. iterations                   250          :
          :  Hamiltonian                  GFN2-xTB          :
          :  restarted?                      false          :
          :  GBSA solvation                  false          :
          :  PC potential                    false          :
          :  electronic temp.          300.0000000     K    :
          :  accuracy                    1.0000000          :
          :  -> integral cutoff          0.2500000E+02      :
          :  -> integral neglect         0.1000000E-07      :
          :  -> SCF convergence          0.1000000E-05 Eh   :
          :  -> wf. convergence          0.1000000E-03 e    :
          :  Broyden damping             0.4000000          :
          :  net charge                          0          :
          :  unpaired electrons                  0          :
          ...................................................

 iter      E             dE          RMSdq      gap      omega  full diag
   1   -175.3350724 -0.175335E+03  0.377E+00    3.13       0.0  T
   2   -175.6216976 -0.286625E+00  0.208E+00    2.68       1.0  T
   3   -175.6330666 -0.113691E-01  0.101E+00    3.04       1.0  T
   4   -175.6396955 -0.662888E-02  0.190E-01    2.99       1.0  T
   5   -175.6420360 -0.234054E-02  0.874E-02    3.05       1.0  T
   6   -175.6422848 -0.248771E-03  0.429E-02    3.05       1.0  T
   7   -175.6423417 -0.568792E-04  0.189E-02    3.05       1.0  T
   8   -175.6423540 -0.123325E-04  0.511E-03    3.05       1.8  T
   9   -175.6423545 -0.440936E-06  0.232E-03    3.05       4.0  T
  10   -175.6423545 -0.832151E-07  0.101E-03    3.05       9.2  T
  11   -175.6423546 -0.259863E-07  0.362E-04    3.05      25.8  T
  12   -175.6423546 -0.501402E-08  0.130E-04    3.05      72.0  T

   *** convergence criteria satisfied after 12 iterations ***

         #    Occupation            Energy/Eh            Energy/eV
      -------------------------------------------------------------
         1        2.0000           -0.7205847             -19.6081
       ...           ...                  ...                  ...
       149        2.0000           -0.3613503              -9.8328
       150        2.0000           -0.3602774              -9.8036
       151        2.0000           -0.3564982              -9.7008
       152        2.0000           -0.3523168              -9.5870
       153        2.0000           -0.3514822              -9.5643
       154        2.0000           -0.3497289              -9.5166
       155        2.0000           -0.3486287              -9.4867 (HOMO)
       156                         -0.2366171              -6.4387 (LUMO)
       157                         -0.2339449              -6.3660
       158                         -0.2272273              -6.1832
       159                         -0.1982037              -5.3934
       160                         -0.1960502              -5.3348
       ...                                ...                  ...
       283                          0.8985796              24.4516
      -------------------------------------------------------------
                  HL-Gap            0.1120115 Eh            3.0480 eV
             Fermi-level           -0.2926229 Eh           -7.9627 eV

 SCC (total)                   0 d,  0 h,  0 min, 17.482 sec
 SCC setup                      ...        0 min,  0.066 sec (  0.375%)
 Dispersion                     ...        0 min,  0.392 sec (  2.240%)
 classical contributions        ...        0 min,  0.054 sec (  0.311%)
 integral evaluation            ...        0 min,  0.427 sec (  2.441%)
 iterations                     ...        0 min, 15.458 sec ( 88.423%)
 molecular gradient             ...        0 min,  1.030 sec (  5.893%)
 printout                       ...        0 min,  0.055 sec (  0.316%)

         :::::::::::::::::::::::::::::::::::::::::::::::::::::
         ::                     SUMMARY                     ::
         :::::::::::::::::::::::::::::::::::::::::::::::::::::
         :: total energy            -173.521272937029 Eh    ::
         :: gradient norm              0.403893888489 Eh/a0 ::
         :: HOMO-LUMO gap              3.047989313960 eV    ::
         ::.................................................::
         :: SCC energy              -175.635817492973 Eh    ::
         :: -> isotropic ES            0.308782793287 Eh    ::
         :: -> anisotropic ES          0.031879136576 Eh    ::
         :: -> anisotropic XC          0.073547362040 Eh    ::
         :: -> dispersion             -0.134783884196 Eh    ::
         :: repulsion energy           2.114544555944 Eh    ::
         :: add. restraining           0.000000000000 Eh    ::
         :: total charge              -0.000000000000 e     ::
         :::::::::::::::::::::::::::::::::::::::::::::::::::::

           -------------------------------------------------
          |                Property Printout                |
           -------------------------------------------------

    * Orbital Energies and Occupations

         #    Occupation            Energy/Eh            Energy/eV
      -------------------------------------------------------------
         1        2.0000           -0.7205847             -19.6081
       ...           ...                  ...                  ...
       143        2.0000           -0.3793669             -10.3231
       144        2.0000           -0.3768654             -10.2550
       145        2.0000           -0.3754817             -10.2174
       146        2.0000           -0.3738819             -10.1738
       147        2.0000           -0.3712536             -10.1023
       148        2.0000           -0.3696856             -10.0597
       149        2.0000           -0.3613503              -9.8328
       150        2.0000           -0.3602774              -9.8036
       151        2.0000           -0.3564982              -9.7008
       152        2.0000           -0.3523168              -9.5870
       153        2.0000           -0.3514822              -9.5643
       154        2.0000           -0.3497289              -9.5166
       155        2.0000           -0.3486287              -9.4867 (HOMO)
       156                         -0.2366171              -6.4387 (LUMO)
       157                         -0.2339449              -6.3660
       158                         -0.2272273              -6.1832
       159                         -0.1982037              -5.3934
       160                         -0.1960502              -5.3348
       161                         -0.1924011              -5.2355
       162                         -0.1891341              -5.1466
       163                         -0.1729869              -4.7072
       164                         -0.1529920              -4.1631
       165                         -0.1433815              -3.9016
       166                         -0.1056888              -2.8759
       ...                                ...                  ...
       283                          0.8985796              24.4516
      -------------------------------------------------------------
                  HL-Gap            0.1120115 Eh            3.0480 eV
             Fermi-level           -0.2926229 Eh           -7.9627 eV

     #   Z          covCN         q      C6AA      α(0)
     1   7 N        2.676    -0.234    26.139     7.593
     2   6 C        3.773     0.004    20.533     6.457
     3   6 C        2.745     0.302    21.878     7.659
     4   8 O        0.867    -0.397    21.622     6.235
     5   7 N        2.685    -0.174    24.762     7.391
     6   6 C        3.745     0.008    20.509     6.460
     7   6 C        2.725     0.289    22.093     7.695
     8   6 C        3.760     0.014    20.385     6.436
     9   8 O        0.859    -0.320    20.144     6.017
    10   7 N        2.677    -0.176    24.809     7.398
    11   6 C        3.809    -0.069    21.817     6.649
    12   6 C        2.741     0.281    22.235     7.721
    13   6 C        2.997     0.014    27.696     8.633
    14   6 C        3.788     0.009    20.431     6.438
    15   8 O        0.860    -0.407    21.812     6.262
    16   6 C        2.911    -0.042    29.038     8.836
    17   6 C        2.916    -0.035    28.872     8.811
    18   7 N        2.680    -0.206    25.479     7.497
    19   6 C        3.811    -0.056    21.566     6.610
    20   6 C        2.950    -0.038    28.944     8.824
    21   6 C        2.932    -0.023    28.573     8.766
    22   6 C        2.741     0.269    22.457     7.759
    23   6 C        3.802    -0.059    21.640     6.623
    24   6 C        2.913    -0.032    28.789     8.798
    25   6 C        3.767     0.012    20.412     6.439
    26   8 O        0.857    -0.356    20.830     6.119
    27   6 C        3.741     0.016    20.384     6.442
    28   7 N        2.680    -0.249    26.472     7.641
    29   6 C        3.797    -0.070    21.837     6.654
    30   7 N        2.687    -0.216    25.718     7.532
    31   6 C        2.737     0.313    21.683     7.624
    32   6 C        3.790    -0.067    21.795     6.649
    33   6 C        2.734     0.242    22.953     7.844
    34   6 C        3.783     0.005    20.509     6.451
    35   8 O        0.859    -0.325    20.236     6.031
    36   6 C        3.733     0.010    20.501     6.463
    37   7 N        1.799    -0.430    32.206     8.407
    38   7 N        2.655    -0.286    27.385     7.772
    39   7 N        2.736    -0.106    23.313     7.171
    40   6 C        3.783    -0.061    21.694     6.635
    41   7 N        2.679    -0.220    25.800     7.544
    42   6 C        3.732     0.002    20.629     6.483
    43   6 C        2.713     0.264    22.546     7.773
    44   6 C        3.818    -0.056    21.561     6.608
    45   6 C        2.732     0.234    23.093     7.868
    46   8 O        0.857    -0.390    21.483     6.214
    47   7 N        1.781    -0.440    32.494     8.442
    48   7 N        2.644    -0.291    27.502     7.789
    49   6 C        3.713     0.121    18.723     6.183
    50   8 O        1.648    -0.425    21.347     6.237
    51   6 C        3.740    -0.117    22.821     6.816
    52   6 C        3.801    -0.058    21.621     6.620
    53   6 C        3.792    -0.052    21.518     6.606
    54   6 C        3.799    -0.070    21.849     6.655
    55   6 C        3.725     0.023    20.292     6.432
    56   7 N        2.626    -0.329    28.471     7.925
    57   1 H        0.858     0.158     1.346     1.818
    58   1 H        0.920     0.077     2.010     2.217
    59   1 H        0.856     0.172     1.264     1.761
    60   1 H        0.922     0.061     2.183     2.311
    61   1 H        0.919     0.048     2.340     2.392
    62   1 H        0.859     0.172     1.260     1.759
    63   1 H        0.921     0.043     2.405     2.425
    64   1 H        0.924     0.048     2.346     2.395
    65   1 H        0.920     0.065     2.137     2.286
    66   1 H        0.927     0.035     2.517     2.481
    67   1 H        0.927     0.029     2.595     2.519
    68   1 H        0.858     0.159     1.344     1.816
    69   1 H        0.925     0.046     2.373     2.409
    70   1 H        0.920     0.026     2.643     2.543
    71   1 H        0.929     0.038     2.469     2.457
    72   1 H        0.927     0.036     2.496     2.471
    73   1 H        0.923     0.049     2.337     2.391
    74   1 H        0.923     0.062     2.182     2.310
    75   1 H        0.926     0.038     2.480     2.463
    76   1 H        0.922     0.033     2.542     2.493
    77   1 H        0.923     0.045     2.383     2.414
    78   1 H        0.922     0.028     2.610     2.527
    79   1 H        0.860     0.154     1.374     1.836
    80   1 H        0.924     0.026     2.644     2.543
    81   1 H        0.925     0.078     1.998     2.210
    82   1 H        0.853     0.137     1.497     1.917
    83   1 H        0.922     0.065     2.146     2.291
    84   1 H        0.917     0.033     2.546     2.495
    85   1 H        0.923     0.088     1.899     2.155
    86   1 H        0.926     0.039     2.466     2.456
    87   1 H        0.927     0.040     2.449     2.447
    88   1 H        0.858     0.122     1.612     1.989
    89   1 H        0.856     0.149     1.407     1.858
    90   1 H        0.856     0.178     1.223     1.733
    91   1 H        0.925     0.047     2.357     2.401
    92   1 H        0.921     0.045     2.383     2.414
    93   1 H        0.853     0.142     1.455     1.890
    94   1 H        0.922     0.060     2.201     2.320
    95   1 H        0.926     0.058     2.223     2.331
    96   1 H        0.924     0.041     2.429     2.437
    97   1 H        0.921     0.046     2.372     2.409
    98   1 H        0.860     0.123     1.601     1.982
    99   1 H        0.860     0.158     1.347     1.818
   100   1 H        0.858     0.176     1.237     1.742
   101   1 H        0.921     0.014     2.825     2.628
   102   1 H        0.799     0.290     0.753     1.364
   103   1 H        0.924     0.046     2.372     2.408
   104   1 H        0.922     0.057     2.239     2.340
   105   1 H        0.921     0.031     2.573     2.509
   106   1 H        0.925     0.037     2.489     2.467
   107   1 H        0.920     0.048     2.341     2.393
   108   1 H        0.918     0.037     2.484     2.465
   109   1 H        0.919     0.034     2.525     2.485
   110   1 H        0.924     0.043     2.411     2.428
   111   1 H        0.926     0.035     2.523     2.484
   112   1 H        0.921     0.025     2.660     2.551
   113   1 H        0.927     0.011     2.869     2.649
   114   1 H        0.857     0.129     1.550     1.951
   115   1 H        0.859     0.135     1.508     1.924

 Mol. C6AA /au·bohr⁶  :     125965.956497
 Mol. C8AA /au·bohr⁸  :    2798903.676731
 Mol. α(0) /au        :        535.012851


Wiberg/Mayer (AO) data.
largest (>0.10) Wiberg bond orders for each atom

 ---------------------------------------------------------------------------
     #   Z sym  total        # sym  WBO       # sym  WBO       # sym  WBO
 ---------------------------------------------------------------------------
     1   7 N    3.308 --     7 C    1.165     2 C    0.958    57 H    0.937
                             9 O    0.173
     2   6 C    3.952 --    49 C    0.969     1 N    0.958    58 H    0.955
                             3 C    0.904
     3   6 C    3.954 --     4 O    1.736     5 N    1.255     2 C    0.904
     4   8 O    2.061 --     3 C    1.736     5 N    0.197
     5   7 N    3.437 --     3 C    1.255     6 C    0.977    59 H    0.929
                             4 O    0.197
     6   6 C    3.959 --    52 C    1.002     5 N    0.977    60 H    0.958
                            43 C    0.851
     7   6 C    3.939 --     9 O    1.855     1 N    1.165     8 C    0.852
     8   6 C    3.962 --    11 C    0.999    10 N    0.975    61 H    0.952
                             7 C    0.852
     9   8 O    2.174 --     7 C    1.855     1 N    0.173
    10   7 N    3.424 --    12 C    1.244     8 C    0.975    62 H    0.935
                            15 O    0.194
    11   6 C    3.994 --    13 C    1.002     8 C    0.999    63 H    0.967
                            64 H    0.963
    12   6 C    3.948 --    15 O    1.734    10 N    1.244    14 C    0.898
    13   6 C    3.987 --    17 C    1.439    16 C    1.383    11 C    1.002
                            24 C    0.117
    14   6 C    3.961 --    18 N    0.993    19 C    0.976    65 H    0.949
                            12 C    0.898
    15   8 O    2.049 --    12 C    1.734    10 N    0.194
    16   6 C    3.991 --    20 C    1.486    13 C    1.383    66 H    0.967
                            21 C    0.102
    17   6 C    3.992 --    13 C    1.439    21 C    1.415    67 H    0.967
                            20 C    0.113
    18   7 N    3.385 --    22 C    1.185    14 C    0.993    68 H    0.938
                            26 O    0.189
    19   6 C    3.994 --    23 C    1.031    14 C    0.976    70 H    0.967
                            69 H    0.965
    20   6 C    3.993 --    16 C    1.486    24 C    1.387    71 H    0.971
                            17 C    0.113
    21   6 C    3.991 --    24 C    1.479    17 C    1.415    72 H    0.968
                            16 C    0.102
    22   6 C    3.941 --    26 O    1.795    18 N    1.185    25 C    0.877
    23   6 C    3.994 --    19 C    1.031    27 C    0.988    73 H    0.970
                            74 H    0.963
    24   6 C    3.990 --    21 C    1.479    20 C    1.387    75 H    0.971
                            13 C    0.117
    25   6 C    3.969 --    28 N    1.009    29 C    0.974    76 H    0.956
                            22 C    0.877
    26   8 O    2.120 --    22 C    1.795    18 N    0.189
    27   6 C    3.976 --    30 N    1.009    23 C    0.988    77 H    0.974
                            78 H    0.960
    28   7 N    3.179 --    31 C    1.012    25 C    1.009    79 H    0.942
    29   6 C    3.987 --    32 C    1.000    25 C    0.974    80 H    0.973
                            81 H    0.966
    30   7 N    3.315 --    33 C    1.118    27 C    1.009    82 H    0.945
                            37 N    0.150
    31   6 C    3.918 --    35 O    1.886    28 N    1.012    34 C    0.932
    32   6 C    3.988 --    36 C    1.011    29 C    1.000    84 H    0.973
                            83 H    0.966
    33   6 C    3.961 --    37 N    1.677    38 N    1.141    30 N    1.118
    34   6 C    3.964 --    39 N    0.962    40 C    0.961    85 H    0.956
                            31 C    0.932
    35   8 O    2.136 --    31 C    1.886
    36   6 C    3.978 --    32 C    1.011    41 N    0.982    86 H    0.971
                            87 H    0.967
    37   7 N    2.942 --    33 C    1.677    88 H    0.946    30 N    0.150
                            38 N    0.116
    38   7 N    3.240 --    33 C    1.141    89 H    0.956    90 H    0.948
                            37 N    0.116
    39   7 N    3.448 --    43 C    1.226    42 C    0.972    34 C    0.962
                            46 O    0.196
    40   6 C    3.991 --    44 C    0.998    91 H    0.982    92 H    0.980
                            34 C    0.961
    41   7 N    3.316 --    45 C    1.144    36 C    0.982    93 H    0.941
                            47 N    0.158
    42   6 C    3.970 --    44 C    1.011    39 N    0.972    95 H    0.968
                            94 H    0.967
    43   6 C    3.933 --    46 O    1.762    39 N    1.226     6 C    0.851
    44   6 C    3.993 --    42 C    1.011    40 C    0.998    97 H    0.980
                            96 H    0.976
    45   6 C    3.954 --    47 N    1.640    41 N    1.144    48 N    1.142
    46   8 O    2.106 --    43 C    1.762    39 N    0.196
    47   7 N    2.906 --    45 C    1.640    98 H    0.947    41 N    0.158
                            48 N    0.115
    48   7 N    3.247 --    45 C    1.142    99 H    0.956   100 H    0.952
                            47 N    0.115
    49   6 C    3.958 --    50 O    1.000    51 C    0.994     2 C    0.969
                           101 H    0.957
    50   8 O    1.970 --    49 C    1.000   102 H    0.899
    51   6 C    3.993 --    49 C    0.994   105 H    0.986   103 H    0.984
                           104 H    0.983
    52   6 C    3.993 --    53 C    1.008     6 C    1.002   106 H    0.969
                           107 H    0.965
    53   6 C    3.994 --    54 C    1.016    52 C    1.008   108 H    0.971
                           109 H    0.971
    54   6 C    3.994 --    53 C    1.016    55 C    0.987   111 H    0.975
                           110 H    0.973
    55   6 C    3.985 --    56 N    1.037    54 C    0.987   112 H    0.973
                           113 H    0.969
    56   7 N    3.010 --    55 C    1.037   114 H    0.966   115 H    0.964
    57   1 H    0.975 --     1 N    0.937
    58   1 H    0.994 --     2 C    0.955
    59   1 H    0.970 --     5 N    0.929
    60   1 H    0.996 --     6 C    0.958
    61   1 H    0.997 --     8 C    0.952
    62   1 H    0.970 --    10 N    0.935
    63   1 H    0.997 --    11 C    0.967
    64   1 H    0.997 --    11 C    0.963
    65   1 H    0.995 --    14 C    0.949
    66   1 H    0.999 --    16 C    0.967
    67   1 H    0.999 --    17 C    0.967
    68   1 H    0.975 --    18 N    0.938
    69   1 H    0.997 --    19 C    0.965
    70   1 H    0.999 --    19 C    0.967
    71   1 H    0.998 --    20 C    0.971
    72   1 H    0.998 --    21 C    0.968
    73   1 H    0.998 --    23 C    0.970
    74   1 H    0.996 --    23 C    0.963
    75   1 H    0.998 --    24 C    0.971
    76   1 H    0.998 --    25 C    0.956
    77   1 H    0.998 --    27 C    0.974
    78   1 H    0.999 --    27 C    0.960
    79   1 H    0.976 --    28 N    0.942
    80   1 H    0.999 --    29 C    0.973
    81   1 H    0.994 --    29 C    0.966
    82   1 H    0.981 --    30 N    0.945
    83   1 H    0.996 --    32 C    0.966
    84   1 H    0.998 --    32 C    0.973
    85   1 H    0.992 --    34 C    0.956
    86   1 H    0.998 --    36 C    0.971
    87   1 H    0.998 --    36 C    0.967
    88   1 H    0.985 --    37 N    0.946
    89   1 H    0.978 --    38 N    0.956
    90   1 H    0.968 --    38 N    0.948
    91   1 H    0.998 --    40 C    0.982
    92   1 H    0.997 --    40 C    0.980
    93   1 H    0.980 --    41 N    0.941
    94   1 H    0.996 --    42 C    0.967
    95   1 H    0.997 --    42 C    0.968
    96   1 H    0.997 --    44 C    0.976
    97   1 H    0.998 --    44 C    0.980
    98   1 H    0.985 --    47 N    0.947
    99   1 H    0.975 --    48 N    0.956
   100   1 H    0.969 --    48 N    0.952
   101   1 H    0.999 --    49 C    0.957
   102   1 H    0.915 --    50 O    0.899
   103   1 H    0.998 --    51 C    0.984
   104   1 H    0.997 --    51 C    0.983
   105   1 H    0.999 --    51 C    0.986
   106   1 H    0.998 --    52 C    0.969
   107   1 H    0.997 --    52 C    0.965
   108   1 H    0.999 --    53 C    0.971
   109   1 H    0.998 --    53 C    0.971
   110   1 H    0.998 --    54 C    0.973
   111   1 H    0.999 --    54 C    0.975
   112   1 H    0.999 --    55 C    0.973
   113   1 H    1.000 --    55 C    0.969
   114   1 H    0.983 --    56 N    0.966
   115   1 H    0.981 --    56 N    0.964
 ---------------------------------------------------------------------------

Topologies differ in total number of bonds
Writing topology from bond orders to xtbtopo.mol

molecular dipole:
                 x           y           z       tot (Debye)
 q only:        1.836      -1.216      -1.479
   full:        2.317      -1.736      -1.469       8.252
molecular quadrupole (traceless):
                xx          xy          yy          xz          yz          zz
 q only:      -24.142      17.699      35.446     -20.711       5.417     -11.304
  q+dip:      -45.482      16.948      52.683     -41.138       3.587      -7.201
   full:      -47.239      18.944      53.231     -40.632       5.246      -5.993


           -------------------------------------------------
          | TOTAL ENERGY             -173.521272937029 Eh   |
          | GRADIENT NORM               0.403893888489 Eh/α |
          | HOMO-LUMO GAP               3.047989313960 eV   |
           -------------------------------------------------

------------------------------------------------------------------------
 * finished run on 2026/05/23 at 12:23:48.904     
------------------------------------------------------------------------
 total:
 * wall-time:     0 d,  0 h,  0 min, 18.326 sec
 *  cpu-time:     0 d,  0 h,  0 min, 24.619 sec
 * ratio c/w:     1.343 speedup
 SCF:
 * wall-time:     0 d,  0 h,  0 min, 17.483 sec
 *  cpu-time:     0 d,  0 h,  0 min, 23.402 sec
 * ratio c/w:     1.339 speedup

normal termination of xtb
