      -----------------------------------------------------------      
     |                   =====================                   |     
     |                           x T B                           |     
     |                   =====================                   |     
     |                         S. Grimme                         |     
     |          Mulliken Center for Theoretical Chemistry        |     
     |                    University of Bonn                     |     
      -----------------------------------------------------------      

   * xtb version 6.7.1 (edcfbbe) compiled by 'albert@albert-system' on 2024-07-22

   xtb is free software: you can redistribute it and/or modify it under
   the terms of the GNU Lesser General Public License as published by
   the Free Software Foundation, either version 3 of the License, or
   (at your option) any later version.
   
   xtb is distributed in the hope that it will be useful,
   but WITHOUT ANY WARRANTY; without even the implied warranty of
   MERCHANTABILITY or FITNESS FOR A PARTICULAR PURPOSE.  See the
   GNU Lesser General Public License for more details.
   
   Cite this work as:
   * C. Bannwarth, E. Caldeweyher, S. Ehlert, A. Hansen, P. Pracht,
     J. Seibert, S. Spicher, S. Grimme, WIREs Comput. Mol. Sci., 2020, 11,
     e01493. DOI: 10.1002/wcms.1493
   
   for GFN2-xTB:
   * C. Bannwarth, S. Ehlert and S. Grimme., J. Chem. Theory Comput., 2019,
     15, 1652-1671. DOI: 10.1021/acs.jctc.8b01176
   for GFN1-xTB:
   * S. Grimme, C. Bannwarth, P. Shushkov, J. Chem. Theory Comput., 2017,
     13, 1989-2009. DOI: 10.1021/acs.jctc.7b00118
   for GFN0-xTB:
   * P. Pracht, E. Caldeweyher, S. Ehlert, S. Grimme, ChemRxiv, 2019, preprint.
     DOI: 10.26434/chemrxiv.8326202.v1
   for GFN-FF:
   * S. Spicher and S. Grimme, Angew. Chem. Int. Ed., 2020, 59, 15665-15673.
     DOI: 10.1002/anie.202004239
   
   for ALPB and GBSA implicit solvation:
   * S. Ehlert, M. Stahn, S. Spicher, S. Grimme, J. Chem. Theory Comput.,
     2021, 17, 4250-4261. DOI: 10.1021/acs.jctc.1c00471
   
   for ddCOSMO and CPCM-X implicit solvation:
   * M. Stahn, S. Ehlert, S. Grimme, J. Phys. Chem. A,
     2023, XX, XXXX-XXXX. DOI: 10.1021/acs.jpca.3c04382
   
   for DFT-D4:
   * E. Caldeweyher, C. Bannwarth and S. Grimme, J. Chem. Phys., 2017,
     147, 034112. DOI: 10.1063/1.4993215
   * E. Caldeweyher, S. Ehlert, A. Hansen, H. Neugebauer, S. Spicher,
     C. Bannwarth and S. Grimme, J. Chem. Phys., 2019, 150, 154122.
     DOI: 10.1063/1.5090222
   * E. Caldeweyher, J.-M. Mewes, S. Ehlert and S. Grimme, Phys. Chem. Chem. Phys.
     2020, 22, 8499-8512. DOI: 10.1039/D0CP00502A
   
   for sTDA-xTB:
   * S. Grimme and C. Bannwarth, J. Chem. Phys., 2016, 145, 054103.
     DOI: 10.1063/1.4959605
   
   in the mass-spec context:
   * V. Asgeirsson, C. Bauer and S. Grimme, Chem. Sci., 2017, 8, 4879.
     DOI: 10.1039/c7sc00601b
   * J. Koopman and S. Grimme, ACS Omega 2019, 4, 12, 15120-15133.
     DOI: 10.1021/acsomega.9b02011
   
   for metadynamics refer to:
   * S. Grimme, J. Chem. Theory Comput., 2019, 155, 2847-2862
     DOI: 10.1021/acs.jctc.9b00143
   
   for SPH calculations refer to:
   * S. Spicher and S. Grimme, J. Chem. Theory Comput., 2021, 17, 1701-1714
     DOI: 10.1021/acs.jctc.0c01306
   
   for ONIOM refer to:
   * C. Plett, A. Katbashev, S. Ehlert, S. Grimme, M. Bursch,
     Phys. Chem. Chem. Phys., 2023, 25, 17860-17868. DOI: 10.1039/D3CP02178E
   
   for DIPRO refer to:
   * J. Kohn, N. Gildemeister, S. Grimme, D. Fazzi, A. Hansen,
     J. Chem. Phys., 2023, just accepted.
   
   for PTB refer to:
   * S. Grimme, M. Mueller, A. Hansen, J. Chem. Phys., 2023, 158, 124111.
     DOI: 10.1063/5.0137838
   
   with help from (in alphabetical order)
   P. Atkinson, C. Bannwarth, F. Bohle, G. Brandenburg, E. Caldeweyher
   M. Checinski, S. Dohm, S. Ehlert, S. Ehrlich, I. Gerasimov, C. Hölzer
   A. Katbashev, J. Kohn, J. Koopman, C. Lavigne, S. Lehtola, F. März, M. Müller,
   F. Musil, H. Neugebauer, J. Pisarek, C. Plett, P. Pracht, F. Pultar,
   J. Seibert, P. Shushkov, S. Spicher, M. Stahn, M. Steiner, T. Strunk,
   J. Stückrath, T. Rose, and J. Unsleber
   
 * started run on 2026/05/23 at 12:41:54.109     
   ID    Z sym.   atoms
    1    7 N      1, 5, 10, 17, 22, 26, 27, 33, 41
    2    6 C      2, 3, 6-8, 11-14, 16, 18-21, 23, 28-30, 34-39
    3    8 O      4, 9, 15, 24, 25, 31, 32, 40
    4    1 H      42-82

           -------------------------------------------------
          |                Calculation Setup                |
           -------------------------------------------------

          program call               : /home/xchen/software/xtb-6.7.1/xtb-dist/bin/xtb /home/xchen/Test/benchmark/md_sampled/09_5_0584_0/snap_0147.xyz --charge 0 --gfn 2 --norestart
          coordinate file            : /home/xchen/Test/benchmark/md_sampled/09_5_0584_0/snap_0147.xyz
          omp threads                :                    48


           -------------------------------------------------
          |                 G F N 2 - x T B                 |
           -------------------------------------------------

        Reference                      10.1021/acs.jctc.8b01176
      * Hamiltonian:
        H0-scaling (s, p, d)           1.850000    2.230000    2.230000
        zeta-weighting                 0.500000
      * Dispersion:
        s8                             2.700000
        a1                             0.520000
        a2                             5.000000
        s9                             5.000000
      * Repulsion:
        kExp                           1.500000    1.000000
        rExp                           1.000000
      * Coulomb:
        alpha                          2.000000
        third order                    shell-resolved
        anisotropic                    true
        a3                             3.000000
        a5                             4.000000
        cn-shift                       1.200000
        cn-exp                         4.000000
        max-rad                        5.000000


          ...................................................
          :                      SETUP                      :
          :.................................................:
          :  # basis functions                 205          :
          :  # atomic orbitals                 205          :
          :  # shells                          123          :
          :  # electrons                       230          :
          :  max. iterations                   250          :
          :  Hamiltonian                  GFN2-xTB          :
          :  restarted?                      false          :
          :  GBSA solvation                  false          :
          :  PC potential                    false          :
          :  electronic temp.          300.0000000     K    :
          :  accuracy                    1.0000000          :
          :  -> integral cutoff          0.2500000E+02      :
          :  -> integral neglect         0.1000000E-07      :
          :  -> SCF convergence          0.1000000E-05 Eh   :
          :  -> wf. convergence          0.1000000E-03 e    :
          :  Broyden damping             0.4000000          :
          :  net charge                          0          :
          :  unpaired electrons                  0          :
          ...................................................

 iter      E             dE          RMSdq      gap      omega  full diag
   1   -132.1771836 -0.132177E+03  0.430E+00    3.87       0.0  T
   2   -132.6194018 -0.442218E+00  0.219E+00    3.61       1.0  T
   3   -132.6361794 -0.167776E-01  0.124E+00    3.65       1.0  T
   4   -132.6376517 -0.147230E-02  0.253E-01    3.13       1.0  T
   5   -132.6415309 -0.387918E-02  0.935E-02    3.21       1.0  T
   6   -132.6415724 -0.415229E-04  0.399E-02    3.19       1.0  T
   7   -132.6415812 -0.877224E-05  0.133E-02    3.20       1.0  T
   8   -132.6415851 -0.396669E-05  0.521E-03    3.20       2.1  T
   9   -132.6415854 -0.257373E-06  0.195E-03    3.20       5.7  T
  10   -132.6415854 -0.301736E-07  0.712E-04    3.20      15.5  T
  11   -132.6415854 -0.112893E-07  0.239E-04    3.20      46.2  T

   *** convergence criteria satisfied after 11 iterations ***

         #    Occupation            Energy/Eh            Energy/eV
      -------------------------------------------------------------
         1        2.0000           -0.7359900             -20.0273
       ...           ...                  ...                  ...
       109        2.0000           -0.4008560             -10.9078
       110        2.0000           -0.3995419             -10.8721
       111        2.0000           -0.3985549             -10.8452
       112        2.0000           -0.3973158             -10.8115
       113        2.0000           -0.3942202             -10.7273
       114        2.0000           -0.3807690             -10.3613
       115        2.0000           -0.3644703              -9.9177 (HOMO)
       116                         -0.2468948              -6.7183 (LUMO)
       117                         -0.2452197              -6.6728
       118                         -0.2431024              -6.6152
       119                         -0.2337837              -6.3616
       120                         -0.2306126              -6.2753
       ...                                ...                  ...
       205                          0.7262967              19.7635
      -------------------------------------------------------------
                  HL-Gap            0.1175755 Eh            3.1994 eV
             Fermi-level           -0.3056825 Eh           -8.3180 eV

 SCC (total)                   0 d,  0 h,  0 min, 12.689 sec
 SCC setup                      ...        0 min,  0.004 sec (  0.032%)
 Dispersion                     ...        0 min,  0.356 sec (  2.802%)
 classical contributions        ...        0 min,  0.015 sec (  0.118%)
 integral evaluation            ...        0 min,  0.568 sec (  4.480%)
 iterations                     ...        0 min, 11.152 sec ( 87.886%)
 molecular gradient             ...        0 min,  0.581 sec (  4.583%)
 printout                       ...        0 min,  0.012 sec (  0.098%)

         :::::::::::::::::::::::::::::::::::::::::::::::::::::
         ::                     SUMMARY                     ::
         :::::::::::::::::::::::::::::::::::::::::::::::::::::
         :: total energy            -131.097640907716 Eh    ::
         :: gradient norm              0.358503323372 Eh/a0 ::
         :: HOMO-LUMO gap              3.199392120571 eV    ::
         ::.................................................::
         :: SCC energy              -132.639123285567 Eh    ::
         :: -> isotropic ES            0.328381948628 Eh    ::
         :: -> anisotropic ES          0.013985859751 Eh    ::
         :: -> anisotropic XC          0.039109606236 Eh    ::
         :: -> dispersion             -0.092202926973 Eh    ::
         :: repulsion energy           1.541482377851 Eh    ::
         :: add. restraining           0.000000000000 Eh    ::
         :: total charge              -0.000000000000 e     ::
         :::::::::::::::::::::::::::::::::::::::::::::::::::::

           -------------------------------------------------
          |                Property Printout                |
           -------------------------------------------------

    * Orbital Energies and Occupations

         #    Occupation            Energy/Eh            Energy/eV
      -------------------------------------------------------------
         1        2.0000           -0.7359900             -20.0273
       ...           ...                  ...                  ...
       103        2.0000           -0.4294424             -11.6857
       104        2.0000           -0.4270659             -11.6211
       105        2.0000           -0.4258942             -11.5892
       106        2.0000           -0.4230171             -11.5109
       107        2.0000           -0.4101471             -11.1607
       108        2.0000           -0.4093810             -11.1398
       109        2.0000           -0.4008560             -10.9078
       110        2.0000           -0.3995419             -10.8721
       111        2.0000           -0.3985549             -10.8452
       112        2.0000           -0.3973158             -10.8115
       113        2.0000           -0.3942202             -10.7273
       114        2.0000           -0.3807690             -10.3613
       115        2.0000           -0.3644703              -9.9177 (HOMO)
       116                         -0.2468948              -6.7183 (LUMO)
       117                         -0.2452197              -6.6728
       118                         -0.2431024              -6.6152
       119                         -0.2337837              -6.3616
       120                         -0.2306126              -6.2753
       121                         -0.2223130              -6.0494
       122                         -0.2095932              -5.7033
       123                         -0.2013273              -5.4784
       124                         -0.0821297              -2.2349
       125                         -0.0553011              -1.5048
       126                         -0.0287991              -0.7837
       ...                                ...                  ...
       205                          0.7262967              19.7635
      -------------------------------------------------------------
                  HL-Gap            0.1175755 Eh            3.1994 eV
             Fermi-level           -0.3056825 Eh           -8.3180 eV

     #   Z          covCN         q      C6AA      α(0)
     1   7 N        2.682    -0.205    25.470     7.495
     2   6 C        3.799     0.030    20.070     6.379
     3   6 C        2.746     0.267    22.483     7.764
     4   8 O        0.858    -0.443    22.555     6.367
     5   7 N        2.691    -0.185    25.009     7.427
     6   6 C        3.786     0.021    20.238     6.408
     7   6 C        2.748     0.279    22.285     7.730
     8   6 C        3.821    -0.002    20.603     6.460
     9   8 O        0.858    -0.396    21.603     6.232
    10   7 N        2.694    -0.143    24.086     7.289
    11   6 C        3.798    -0.067    21.778     6.645
    12   6 C        2.772     0.260    22.627     7.791
    13   6 C        3.800    -0.058    21.622     6.621
    14   6 C        3.785     0.030    20.085     6.384
    15   8 O        0.863    -0.471    23.145     6.450
    16   6 C        3.806    -0.073    21.888     6.660
    17   7 N        2.683    -0.146    24.152     7.299
    18   6 C        3.803    -0.095    22.301     6.723
    19   6 C        3.717     0.018    20.394     6.451
    20   6 C        2.743     0.256    22.689     7.799
    21   6 C        2.744     0.291    22.067     7.692
    22   7 N        2.628    -0.337    28.684     7.954
    23   6 C        3.804     0.027    20.110     6.384
    24   8 O        0.857    -0.478    23.314     6.474
    25   8 O        0.864    -0.445    22.597     6.374
    26   7 N        2.645    -0.262    26.796     7.688
    27   7 N        2.685    -0.202    25.392     7.484
    28   6 C        3.816    -0.104    22.462     6.745
    29   6 C        2.754     0.259    22.638     7.791
    30   6 C        2.767     0.291    22.068     7.693
    31   8 O        0.856    -0.404    21.756     6.254
    32   8 O        0.868    -0.446    22.626     6.378
    33   7 N        2.640    -0.263    26.816     7.691
    34   6 C        3.849    -0.017    20.836     6.493
    35   6 C        3.755    -0.110    22.667     6.789
    36   6 C        3.742    -0.113    22.741     6.803
    37   6 C        3.809    -0.057    21.593     6.615
    38   6 C        3.802    -0.094    22.288     6.721
    39   6 C        2.744     0.284    22.193     7.714
    40   8 O        0.857    -0.385    21.388     6.200
    41   7 N        2.631    -0.327    28.424     7.918
    42   1 H        0.860     0.219     1.013     1.577
    43   1 H        0.922     0.029     2.606     2.525
    44   1 H        0.859     0.182     1.203     1.718
    45   1 H        0.925     0.078     1.997     2.210
    46   1 H        0.930     0.112     1.676     2.024
    47   1 H        0.859     0.187     1.176     1.699
    48   1 H        0.918     0.028     2.619     2.531
    49   1 H        0.922     0.051     2.307     2.376
    50   1 H        0.924     0.040     2.448     2.447
    51   1 H        0.917     0.021     2.724     2.581
    52   1 H        0.922     0.084     1.941     2.179
    53   1 H        0.926     0.045     2.385     2.415
    54   1 H        0.925     0.040     2.453     2.449
    55   1 H        0.861     0.220     1.010     1.575
    56   1 H        0.922     0.074     2.041     2.234
    57   1 H        0.919     0.047     2.357     2.401
    58   1 H        0.906     0.027     2.636     2.540
    59   1 H        0.925     0.049     2.335     2.390
    60   1 H        0.860     0.132     1.530     1.938
    61   1 H        0.860     0.137     1.493     1.914
    62   1 H        0.930     0.095     1.828     2.114
    63   1 H        0.862     0.209     1.063     1.615
    64   1 H        0.860     0.179     1.219     1.729
    65   1 H        0.861     0.220     1.008     1.573
    66   1 H        0.929     0.054     2.266     2.354
    67   1 H        0.925     0.085     1.927     2.171
    68   1 H        0.857     0.181     1.208     1.722
    69   1 H        0.861     0.216     1.027     1.587
    70   1 H        0.924     0.064     2.155     2.296
    71   1 H        0.919     0.024     2.674     2.558
    72   1 H        0.927     0.042     2.428     2.437
    73   1 H        0.926     0.053     2.287     2.365
    74   1 H        0.918     0.057     2.234     2.338
    75   1 H        0.927     0.059     2.212     2.326
    76   1 H        0.924     0.032     2.553     2.499
    77   1 H        0.928     0.082     1.959     2.188
    78   1 H        0.922     0.066     2.126     2.280
    79   1 H        0.921     0.066     2.129     2.282
    80   1 H        0.924     0.072     2.063     2.246
    81   1 H        0.861     0.184     1.189     1.708
    82   1 H        0.860     0.172     1.259     1.758

 Mol. C6AA /au·bohr⁶  :      63063.263179
 Mol. C8AA /au·bohr⁸  :    1391406.655557
 Mol. α(0) /au        :        374.094352


Wiberg/Mayer (AO) data.
largest (>0.10) Wiberg bond orders for each atom

 ---------------------------------------------------------------------------
     #   Z sym  total        # sym  WBO       # sym  WBO       # sym  WBO
 ---------------------------------------------------------------------------
     1   7 N    3.369 --     7 C    1.227     2 C    0.988    42 H    0.875
                             9 O    0.184
     2   6 C    3.971 --     1 N    0.988    34 C    0.952    43 H    0.947
                             3 C    0.936
     3   6 C    3.947 --     4 O    1.646     5 N    1.290     2 C    0.936
     4   8 O    1.983 --     3 C    1.646     5 N    0.196
     5   7 N    3.448 --     3 C    1.290     6 C    0.942    44 H    0.928
                             4 O    0.196
     6   6 C    3.961 --    37 C    0.997    45 H    0.961     5 N    0.942
                            29 C    0.934
     7   6 C    3.951 --     9 O    1.747     1 N    1.227     8 C    0.894
     8   6 C    3.950 --    11 C    0.986    10 N    0.976    46 H    0.946
                             7 C    0.894
     9   8 O    2.059 --     7 C    1.747     1 N    0.184
    10   7 N    3.515 --    12 C    1.343     8 C    0.976    47 H    0.915
                            15 O    0.202
    11   6 C    3.991 --    13 C    1.010     8 C    0.986    49 H    0.971
                            48 H    0.966
    12   6 C    3.959 --    15 O    1.606    10 N    1.343    14 C    0.928
    13   6 C    3.992 --    11 C    1.010    16 C    0.999    50 H    0.974
                            51 H    0.973
    14   6 C    3.964 --    18 C    0.995    17 N    0.962    52 H    0.955
                            12 C    0.928
    15   8 O    1.940 --    12 C    1.606    10 N    0.202
    16   6 C    3.992 --    19 C    1.002    13 C    0.999    54 H    0.969
                            53 H    0.968
    17   7 N    3.485 --    20 C    1.342    14 C    0.962    55 H    0.918
                            24 O    0.186
    18   6 C    3.993 --    14 C    0.995    21 C    0.967    57 H    0.964
                            56 H    0.938
    19   6 C    3.982 --    22 N    1.029    16 C    1.002    59 H    0.973
                            58 H    0.962
    20   6 C    3.942 --    24 O    1.602    17 N    1.342    23 C    0.908
    21   6 C    3.952 --    25 O    1.675    26 N    1.275    18 C    0.967
    22   7 N    3.009 --    19 C    1.029    61 H    0.965    60 H    0.964
    23   6 C    3.973 --    27 N    1.013    62 H    0.958    28 C    0.947
                            20 C    0.908
    24   8 O    1.966 --    20 C    1.602    17 N    0.186
    25   8 O    1.986 --    21 C    1.675    26 N    0.193
    26   7 N    3.382 --    21 C    1.275    64 H    0.944    63 H    0.936
                            25 O    0.193
    27   7 N    3.400 --    29 C    1.206    23 C    1.013    65 H    0.896
                            31 O    0.194
    28   6 C    3.986 --    66 H    0.976    30 C    0.970    23 C    0.947
                            67 H    0.947
    29   6 C    3.949 --    31 O    1.732    27 N    1.206     6 C    0.934
    30   6 C    3.955 --    32 O    1.674    33 N    1.275    28 C    0.970
    31   8 O    2.040 --    29 C    1.732    27 N    0.194
    32   8 O    1.982 --    30 C    1.674    33 N    0.195
    33   7 N    3.377 --    30 C    1.275    68 H    0.943    69 H    0.929
                            32 O    0.195
    34   6 C    3.986 --    35 C    1.025    36 C    0.996    70 H    0.959
                             2 C    0.952
    35   6 C    3.990 --    34 C    1.025    71 H    0.981    72 H    0.981
                            73 H    0.978
    36   6 C    3.989 --    34 C    0.996    76 H    0.988    75 H    0.985
                            74 H    0.984
    37   6 C    3.987 --     6 C    0.997    38 C    0.972    77 H    0.971
                            78 H    0.965
    38   6 C    3.989 --    39 C    1.001    37 C    0.972    80 H    0.965
                            79 H    0.961
    39   6 C    3.939 --    40 O    1.788    41 N    1.114    38 C    1.001
    40   8 O    2.059 --    39 C    1.788    41 N    0.166
    41   7 N    3.214 --    39 C    1.114    81 H    0.952    82 H    0.942
                            40 O    0.166
    42   1 H    0.952 --     1 N    0.875
    43   1 H    0.999 --     2 C    0.947
    44   1 H    0.966 --     5 N    0.928
    45   1 H    0.993 --     6 C    0.961
    46   1 H    0.987 --     8 C    0.946
    47   1 H    0.965 --    10 N    0.915
    48   1 H    0.999 --    11 C    0.966
    49   1 H    0.997 --    11 C    0.971
    50   1 H    0.998 --    13 C    0.974
    51   1 H    1.000 --    13 C    0.973
    52   1 H    0.992 --    14 C    0.955
    53   1 H    0.998 --    16 C    0.968
    54   1 H    0.998 --    16 C    0.969
    55   1 H    0.951 --    17 N    0.918
    56   1 H    0.994 --    18 C    0.938
    57   1 H    0.997 --    18 C    0.964
    58   1 H    0.999 --    19 C    0.962
    59   1 H    0.998 --    19 C    0.973
    60   1 H    0.983 --    22 N    0.964
    61   1 H    0.981 --    22 N    0.965
    62   1 H    0.991 --    23 C    0.958
    63   1 H    0.956 --    26 N    0.936
    64   1 H    0.968 --    26 N    0.944
    65   1 H    0.951 --    27 N    0.896
    66   1 H    0.997 --    28 C    0.976
    67   1 H    0.992 --    28 C    0.947
    68   1 H    0.967 --    33 N    0.943
    69   1 H    0.953 --    33 N    0.929
    70   1 H    0.995 --    34 C    0.959
    71   1 H    0.999 --    35 C    0.981
    72   1 H    0.998 --    35 C    0.981
    73   1 H    0.997 --    35 C    0.978
    74   1 H    0.997 --    36 C    0.984
    75   1 H    0.997 --    36 C    0.985
    76   1 H    0.999 --    36 C    0.988
    77   1 H    0.993 --    37 C    0.971
    78   1 H    0.996 --    37 C    0.965
    79   1 H    0.996 --    38 C    0.961
    80   1 H    0.995 --    38 C    0.965
    81   1 H    0.966 --    41 N    0.952
    82   1 H    0.970 --    41 N    0.942
 ---------------------------------------------------------------------------

Topologies differ in total number of bonds
Writing topology from bond orders to xtbtopo.mol

molecular dipole:
                 x           y           z       tot (Debye)
 q only:       -1.703       2.459      -2.640
   full:       -2.167       3.403      -2.797      12.477
molecular quadrupole (traceless):
                xx          xy          yy          xz          yz          zz
 q only:       -0.494     -12.478      22.421       4.859     -28.122     -21.927
  q+dip:       -7.977     -25.641      27.268      -2.607     -40.446     -19.291
   full:       -6.692     -25.083      27.184      -2.337     -40.276     -20.493


           -------------------------------------------------
          | TOTAL ENERGY             -131.097640907716 Eh   |
          | GRADIENT NORM               0.358503323372 Eh/α |
          | HOMO-LUMO GAP               3.199392120571 eV   |
           -------------------------------------------------

------------------------------------------------------------------------
 * finished run on 2026/05/23 at 12:42:07.492     
------------------------------------------------------------------------
 total:
 * wall-time:     0 d,  0 h,  0 min, 13.382 sec
 *  cpu-time:     0 d,  0 h,  0 min, 13.984 sec
 * ratio c/w:     1.045 speedup
 SCF:
 * wall-time:     0 d,  0 h,  0 min, 12.689 sec
 *  cpu-time:     0 d,  0 h,  0 min, 13.457 sec
 * ratio c/w:     1.060 speedup

normal termination of xtb
