      -----------------------------------------------------------      
     |                   =====================                   |     
     |                           x T B                           |     
     |                   =====================                   |     
     |                         S. Grimme                         |     
     |          Mulliken Center for Theoretical Chemistry        |     
     |                    University of Bonn                     |     
      -----------------------------------------------------------      

   * xtb version 6.7.1 (edcfbbe) compiled by 'albert@albert-system' on 2024-07-22

   xtb is free software: you can redistribute it and/or modify it under
   the terms of the GNU Lesser General Public License as published by
   the Free Software Foundation, either version 3 of the License, or
   (at your option) any later version.
   
   xtb is distributed in the hope that it will be useful,
   but WITHOUT ANY WARRANTY; without even the implied warranty of
   MERCHANTABILITY or FITNESS FOR A PARTICULAR PURPOSE.  See the
   GNU Lesser General Public License for more details.
   
   Cite this work as:
   * C. Bannwarth, E. Caldeweyher, S. Ehlert, A. Hansen, P. Pracht,
     J. Seibert, S. Spicher, S. Grimme, WIREs Comput. Mol. Sci., 2020, 11,
     e01493. DOI: 10.1002/wcms.1493
   
   for GFN2-xTB:
   * C. Bannwarth, S. Ehlert and S. Grimme., J. Chem. Theory Comput., 2019,
     15, 1652-1671. DOI: 10.1021/acs.jctc.8b01176
   for GFN1-xTB:
   * S. Grimme, C. Bannwarth, P. Shushkov, J. Chem. Theory Comput., 2017,
     13, 1989-2009. DOI: 10.1021/acs.jctc.7b00118
   for GFN0-xTB:
   * P. Pracht, E. Caldeweyher, S. Ehlert, S. Grimme, ChemRxiv, 2019, preprint.
     DOI: 10.26434/chemrxiv.8326202.v1
   for GFN-FF:
   * S. Spicher and S. Grimme, Angew. Chem. Int. Ed., 2020, 59, 15665-15673.
     DOI: 10.1002/anie.202004239
   
   for ALPB and GBSA implicit solvation:
   * S. Ehlert, M. Stahn, S. Spicher, S. Grimme, J. Chem. Theory Comput.,
     2021, 17, 4250-4261. DOI: 10.1021/acs.jctc.1c00471
   
   for ddCOSMO and CPCM-X implicit solvation:
   * M. Stahn, S. Ehlert, S. Grimme, J. Phys. Chem. A,
     2023, XX, XXXX-XXXX. DOI: 10.1021/acs.jpca.3c04382
   
   for DFT-D4:
   * E. Caldeweyher, C. Bannwarth and S. Grimme, J. Chem. Phys., 2017,
     147, 034112. DOI: 10.1063/1.4993215
   * E. Caldeweyher, S. Ehlert, A. Hansen, H. Neugebauer, S. Spicher,
     C. Bannwarth and S. Grimme, J. Chem. Phys., 2019, 150, 154122.
     DOI: 10.1063/1.5090222
   * E. Caldeweyher, J.-M. Mewes, S. Ehlert and S. Grimme, Phys. Chem. Chem. Phys.
     2020, 22, 8499-8512. DOI: 10.1039/D0CP00502A
   
   for sTDA-xTB:
   * S. Grimme and C. Bannwarth, J. Chem. Phys., 2016, 145, 054103.
     DOI: 10.1063/1.4959605
   
   in the mass-spec context:
   * V. Asgeirsson, C. Bauer and S. Grimme, Chem. Sci., 2017, 8, 4879.
     DOI: 10.1039/c7sc00601b
   * J. Koopman and S. Grimme, ACS Omega 2019, 4, 12, 15120-15133.
     DOI: 10.1021/acsomega.9b02011
   
   for metadynamics refer to:
   * S. Grimme, J. Chem. Theory Comput., 2019, 155, 2847-2862
     DOI: 10.1021/acs.jctc.9b00143
   
   for SPH calculations refer to:
   * S. Spicher and S. Grimme, J. Chem. Theory Comput., 2021, 17, 1701-1714
     DOI: 10.1021/acs.jctc.0c01306
   
   for ONIOM refer to:
   * C. Plett, A. Katbashev, S. Ehlert, S. Grimme, M. Bursch,
     Phys. Chem. Chem. Phys., 2023, 25, 17860-17868. DOI: 10.1039/D3CP02178E
   
   for DIPRO refer to:
   * J. Kohn, N. Gildemeister, S. Grimme, D. Fazzi, A. Hansen,
     J. Chem. Phys., 2023, just accepted.
   
   for PTB refer to:
   * S. Grimme, M. Mueller, A. Hansen, J. Chem. Phys., 2023, 158, 124111.
     DOI: 10.1063/5.0137838
   
   with help from (in alphabetical order)
   P. Atkinson, C. Bannwarth, F. Bohle, G. Brandenburg, E. Caldeweyher
   M. Checinski, S. Dohm, S. Ehlert, S. Ehrlich, I. Gerasimov, C. Hölzer
   A. Katbashev, J. Kohn, J. Koopman, C. Lavigne, S. Lehtola, F. März, M. Müller,
   F. Musil, H. Neugebauer, J. Pisarek, C. Plett, P. Pracht, F. Pultar,
   J. Seibert, P. Shushkov, S. Spicher, M. Stahn, M. Steiner, T. Strunk,
   J. Stückrath, T. Rose, and J. Unsleber
   
 * started run on 2026/05/23 at 12:25:05.175     
   ID    Z sym.   atoms
    1    7 N      1, 5, 13, 19, 23, 28, 35
    2    6 C      2, 3, 6-10, 12, 14, 15, 17, 20, 21, 24-26, 29, 30, 32, 33,
                  36, 37, 39, 41-44
    3    8 O      4, 11, 18, 22, 27, 31, 34, 38, 40
    4   16 S      16
    5    1 H      45-89

           -------------------------------------------------
          |                Calculation Setup                |
           -------------------------------------------------

          program call               : /home/xchen/software/xtb-6.7.1/xtb-dist/bin/xtb /home/xchen/Test/benchmark/md_sampled/06_7_0793_0/snap_0014.xyz --charge 0 --gfn 2 --norestart
          coordinate file            : /home/xchen/Test/benchmark/md_sampled/06_7_0793_0/snap_0014.xyz
          omp threads                :                    48


           -------------------------------------------------
          |                 G F N 2 - x T B                 |
           -------------------------------------------------

        Reference                      10.1021/acs.jctc.8b01176
      * Hamiltonian:
        H0-scaling (s, p, d)           1.850000    2.230000    2.230000
        zeta-weighting                 0.500000
      * Dispersion:
        s8                             2.700000
        a1                             0.520000
        a2                             5.000000
        s9                             5.000000
      * Repulsion:
        kExp                           1.500000    1.000000
        rExp                           1.000000
      * Coulomb:
        alpha                          2.000000
        third order                    shell-resolved
        anisotropic                    true
        a3                             3.000000
        a5                             4.000000
        cn-shift                       1.200000
        cn-exp                         4.000000
        max-rad                        5.000000


          ...................................................
          :                      SETUP                      :
          :.................................................:
          :  # basis functions                 227          :
          :  # atomic orbitals                 226          :
          :  # shells                          134          :
          :  # electrons                       248          :
          :  max. iterations                   250          :
          :  Hamiltonian                  GFN2-xTB          :
          :  restarted?                      false          :
          :  GBSA solvation                  false          :
          :  PC potential                    false          :
          :  electronic temp.          300.0000000     K    :
          :  accuracy                    1.0000000          :
          :  -> integral cutoff          0.2500000E+02      :
          :  -> integral neglect         0.1000000E-07      :
          :  -> SCF convergence          0.1000000E-05 Eh   :
          :  -> wf. convergence          0.1000000E-03 e    :
          :  Broyden damping             0.4000000          :
          :  net charge                          0          :
          :  unpaired electrons                  0          :
          ...................................................

 iter      E             dE          RMSdq      gap      omega  full diag
   1   -142.3113102 -0.142311E+03  0.415E+00    3.72       0.0  T
   2   -142.6395848 -0.328275E+00  0.223E+00    3.72       1.0  T
   3   -142.6538902 -0.143054E-01  0.116E+00    3.75       1.0  T
   4   -142.6588452 -0.495495E-02  0.214E-01    3.47       1.0  T
   5   -142.6606782 -0.183302E-02  0.111E-01    3.61       1.0  T
   6   -142.6608465 -0.168278E-03  0.366E-02    3.62       1.0  T
   7   -142.6608627 -0.162544E-04  0.166E-02    3.63       1.0  T
   8   -142.6608683 -0.560306E-05  0.674E-03    3.62       1.6  T
   9   -142.6608689 -0.535232E-06  0.214E-03    3.62       4.9  T
  10   -142.6608690 -0.781936E-07  0.926E-04    3.62      11.5  T
  11   -142.6608690 -0.136683E-07  0.314E-04    3.62      33.8  T

   *** convergence criteria satisfied after 11 iterations ***

         #    Occupation            Energy/Eh            Energy/eV
      -------------------------------------------------------------
         1        2.0000           -0.7175438             -19.5254
       ...           ...                  ...                  ...
       118        2.0000           -0.3997484             -10.8777
       119        2.0000           -0.3990606             -10.8590
       120        2.0000           -0.3947240             -10.7410
       121        2.0000           -0.3912087             -10.6453
       122        2.0000           -0.3899490             -10.6111
       123        2.0000           -0.3849969             -10.4763
       124        2.0000           -0.3781267             -10.2894 (HOMO)
       125                         -0.2450221              -6.6674 (LUMO)
       126                         -0.2410968              -6.5606
       127                         -0.2310564              -6.2874
       128                         -0.2251729              -6.1273
       129                         -0.2227376              -6.0610
       ...                                ...                  ...
       226                          0.6766048              18.4114
      -------------------------------------------------------------
                  HL-Gap            0.1331046 Eh            3.6220 eV
             Fermi-level           -0.3115744 Eh           -8.4784 eV

 SCC (total)                   0 d,  0 h,  0 min, 14.916 sec
 SCC setup                      ...        0 min,  0.036 sec (  0.240%)
 Dispersion                     ...        0 min,  0.096 sec (  0.643%)
 classical contributions        ...        0 min,  0.006 sec (  0.042%)
 integral evaluation            ...        0 min,  0.735 sec (  4.925%)
 iterations                     ...        0 min, 12.578 sec ( 84.324%)
 molecular gradient             ...        0 min,  1.295 sec (  8.681%)
 printout                       ...        0 min,  0.171 sec (  1.145%)

         :::::::::::::::::::::::::::::::::::::::::::::::::::::
         ::                     SUMMARY                     ::
         :::::::::::::::::::::::::::::::::::::::::::::::::::::
         :: total energy            -141.059748786871 Eh    ::
         :: gradient norm              0.314684765872 Eh/a0 ::
         :: HOMO-LUMO gap              3.621961596554 eV    ::
         ::.................................................::
         :: SCC energy              -142.655386135892 Eh    ::
         :: -> isotropic ES            0.314777208916 Eh    ::
         :: -> anisotropic ES          0.000579909761 Eh    ::
         :: -> anisotropic XC          0.039572274297 Eh    ::
         :: -> dispersion             -0.108879878446 Eh    ::
         :: repulsion energy           1.595637349021 Eh    ::
         :: add. restraining           0.000000000000 Eh    ::
         :: total charge               0.000000000000 e     ::
         :::::::::::::::::::::::::::::::::::::::::::::::::::::

           -------------------------------------------------
          |                Property Printout                |
           -------------------------------------------------

    * Orbital Energies and Occupations

         #    Occupation            Energy/Eh            Energy/eV
      -------------------------------------------------------------
         1        2.0000           -0.7175438             -19.5254
       ...           ...                  ...                  ...
       112        2.0000           -0.4220843             -11.4855
       113        2.0000           -0.4139814             -11.2650
       114        2.0000           -0.4128351             -11.2338
       115        2.0000           -0.4109878             -11.1835
       116        2.0000           -0.4063473             -11.0573
       117        2.0000           -0.4027407             -10.9591
       118        2.0000           -0.3997484             -10.8777
       119        2.0000           -0.3990606             -10.8590
       120        2.0000           -0.3947240             -10.7410
       121        2.0000           -0.3912087             -10.6453
       122        2.0000           -0.3899490             -10.6111
       123        2.0000           -0.3849969             -10.4763
       124        2.0000           -0.3781267             -10.2894 (HOMO)
       125                         -0.2450221              -6.6674 (LUMO)
       126                         -0.2410968              -6.5606
       127                         -0.2310564              -6.2874
       128                         -0.2251729              -6.1273
       129                         -0.2227376              -6.0610
       130                         -0.2200533              -5.9880
       131                         -0.2193335              -5.9684
       132                         -0.2150556              -5.8520
       133                         -0.1653575              -4.4996
       134                         -0.0692501              -1.8844
       135                         -0.0669518              -1.8219
       ...                                ...                  ...
       226                          0.6766048              18.4114
      -------------------------------------------------------------
                  HL-Gap            0.1331046 Eh            3.6220 eV
             Fermi-level           -0.3115744 Eh           -8.4784 eV

     #   Z          covCN         q      C6AA      α(0)
     1   7 N        2.771    -0.161    24.481     7.349
     2   6 C        3.880     0.030    20.023     6.362
     3   6 C        2.752     0.259    22.630     7.790
     4   8 O        0.856    -0.354    20.779     6.112
     5   7 N        2.680    -0.233    26.111     7.589
     6   6 C        3.806     0.024    20.174     6.394
     7   6 C        3.844    -0.006    20.646     6.464
     8   6 C        2.760     0.270    22.432     7.756
     9   6 C        3.850    -0.069    21.785     6.639
    10   6 C        3.808     0.021    20.209     6.399
    11   8 O        0.858    -0.379    21.259     6.182
    12   6 C        3.880    -0.065    21.692     6.622
    13   7 N        2.674    -0.208    25.534     7.505
    14   6 C        3.786    -0.017    20.894     6.511
    15   6 C        2.746     0.288    22.120     7.701
    16  16 S        1.898    -0.223   150.590    20.654
    17   6 C        3.733    -0.031    21.223     6.575
    18   8 O        0.857    -0.400    21.671     6.241
    19   7 N        2.686    -0.185    25.018     7.429
    20   6 C        2.775     0.270    22.437     7.758
    21   6 C        3.829     0.028    20.080     6.376
    22   8 O        0.858    -0.436    22.408     6.347
    23   7 N        2.707    -0.176    24.803     7.397
    24   6 C        3.763    -0.109    22.618     6.779
    25   6 C        2.798     0.280    22.263     7.730
    26   6 C        3.834     0.004    20.482     6.439
    27   8 O        0.858    -0.430    22.294     6.330
    28   7 N        2.696    -0.206    25.473     7.496
    29   6 C        3.749     0.111    18.826     6.188
    30   6 C        2.780     0.277    22.316     7.738
    31   8 O        1.657    -0.467    22.198     6.360
    32   6 C        3.754    -0.141    23.277     6.880
    33   6 C        3.838     0.005    20.467     6.436
    34   8 O        0.856    -0.386    21.397     6.202
    35   7 N        2.688    -0.144    24.112     7.293
    36   6 C        3.728     0.124    18.659     6.167
    37   6 C        2.782     0.268    22.478     7.766
    38   8 O        1.657    -0.474    22.348     6.382
    39   6 C        3.749    -0.121    22.890     6.824
    40   8 O        0.859    -0.488    23.528     6.503
    41   6 C        3.853    -0.019    20.875     6.498
    42   6 C        3.765    -0.118    22.799     6.806
    43   6 C        3.825    -0.050    21.451     6.591
    44   6 C        3.752    -0.106    22.581     6.776
    45   1 H        0.926     0.069     2.096     2.264
    46   1 H        0.861     0.180     1.215     1.726
    47   1 H        0.924     0.065     2.146     2.291
    48   1 H        0.928     0.064     2.147     2.291
    49   1 H        0.928     0.055     2.257     2.349
    50   1 H        0.923     0.057     2.231     2.336
    51   1 H        0.927     0.058     2.218     2.329
    52   1 H        0.927     0.089     1.891     2.150
    53   1 H        0.921     0.057     2.234     2.337
    54   1 H        0.911     0.051     2.309     2.377
    55   1 H        0.858     0.208     1.065     1.617
    56   1 H        0.926     0.082     1.960     2.189
    57   1 H        0.927     0.058     2.219     2.329
    58   1 H        0.909     0.128     1.555     1.950
    59   1 H        0.917     0.077     2.013     2.219
    60   1 H        0.928     0.098     1.802     2.099
    61   1 H        0.862     0.186     1.179     1.701
    62   1 H        0.928     0.084     1.940     2.178
    63   1 H        0.860     0.218     1.017     1.580
    64   1 H        0.923     0.058     2.227     2.334
    65   1 H        0.923     0.037     2.484     2.465
    66   1 H        0.922     0.043     2.410     2.428
    67   1 H        0.927     0.094     1.843     2.123
    68   1 H        0.861     0.199     1.113     1.653
    69   1 H        0.925     0.040     2.442     2.444
    70   1 H        0.808     0.329     0.638     1.255
    71   1 H        0.929     0.064     2.158     2.297
    72   1 H        0.923     0.050     2.326     2.385
    73   1 H        0.928     0.046     2.375     2.410
    74   1 H        0.926     0.047     2.363     2.404
    75   1 H        0.862     0.196     1.127     1.663
    76   1 H        0.925     0.023     2.691     2.566
    77   1 H        0.804     0.340     0.612     1.229
    78   1 H        0.927     0.069     2.100     2.266
    79   1 H        0.926     0.051     2.304     2.374
    80   1 H        0.920     0.027     2.633     2.538
    81   1 H        0.923     0.026     2.643     2.543
    82   1 H        0.927     0.041     2.437     2.441
    83   1 H        0.926     0.055     2.256     2.349
    84   1 H        0.925     0.047     2.356     2.400
    85   1 H        0.923     0.024     2.670     2.556
    86   1 H        0.924     0.029     2.601     2.522
    87   1 H        0.925     0.045     2.378     2.412
    88   1 H        0.920     0.032     2.566     2.505
    89   1 H        0.926     0.047     2.362     2.403

 Mol. C6AA /au·bohr⁶  :      76815.199800
 Mol. C8AA /au·bohr⁸  :    1766298.816268
 Mol. α(0) /au        :        413.609407


Wiberg/Mayer (AO) data.
largest (>0.10) Wiberg bond orders for each atom

 ---------------------------------------------------------------------------
     #   Z sym  total        # sym  WBO       # sym  WBO       # sym  WBO
 ---------------------------------------------------------------------------
     1   7 N    3.353 --     8 C    1.134     2 C    0.979     7 C    0.966
                            11 O    0.163
     2   6 C    3.972 --     1 N    0.979    12 C    0.977    45 H    0.950
                             3 C    0.947
     3   6 C    3.935 --     4 O    1.819     5 N    1.083     2 C    0.947
     4   8 O    2.107 --     3 C    1.819     5 N    0.177
     5   7 N    3.304 --     3 C    1.083     6 C    1.031    46 H    0.917
                             4 O    0.177
     6   6 C    3.978 --     5 N    1.031    41 C    0.947    47 H    0.946
                            37 C    0.928
     7   6 C    3.973 --     9 C    0.991    48 H    0.977    49 H    0.976
                             1 N    0.966
     8   6 C    3.947 --    11 O    1.777     1 N    1.134    10 C    0.943
     9   6 C    3.990 --    12 C    1.006     7 C    0.991    50 H    0.978
                            51 H    0.978
    10   6 C    3.972 --    14 C    0.984    13 N    0.975    52 H    0.948
                             8 C    0.943
    11   8 O    2.074 --     8 C    1.777     1 N    0.163
    12   6 C    3.985 --     9 C    1.006     2 C    0.977    53 H    0.972
                            54 H    0.969
    13   7 N    3.351 --    15 C    1.197    10 C    0.975    55 H    0.916
                            18 O    0.187
    14   6 C    3.975 --    16 S    0.989    10 C    0.984    57 H    0.976
                            56 H    0.970
    15   6 C    3.950 --    18 O    1.751    13 N    1.197    17 C    0.947
    16  16 S    2.019 --    14 C    0.989    58 H    0.976
    17   6 C    3.954 --    59 H    0.969    19 N    0.964    60 H    0.961
                            15 C    0.947
    18   8 O    2.050 --    15 C    1.751    13 N    0.187
    19   7 N    3.445 --    20 C    1.273    17 C    0.964    61 H    0.943
                            22 O    0.199
    20   6 C    3.954 --    22 O    1.667    19 N    1.273    21 C    0.943
    21   6 C    3.973 --    23 N    0.996    24 C    0.978    62 H    0.949
                            20 C    0.943
    22   8 O    2.009 --    20 C    1.667    19 N    0.199
    23   7 N    3.460 --    25 C    1.268    21 C    0.996    63 H    0.905
                            27 O    0.201
    24   6 C    3.986 --    66 H    0.983    65 H    0.980    21 C    0.978
                            64 H    0.977
    25   6 C    3.954 --    27 O    1.656    23 N    1.268    26 C    0.943
    26   6 C    3.957 --    28 N    0.963    29 C    0.961    67 H    0.945
                            25 C    0.943
    27   8 O    2.036 --    25 C    1.656    23 N    0.201
    28   7 N    3.405 --    30 C    1.238    26 C    0.963    68 H    0.915
                            34 O    0.198
    29   6 C    3.966 --    31 O    1.006    32 C    0.984    69 H    0.963
                            26 C    0.961
    30   6 C    3.959 --    34 O    1.740    28 N    1.238    33 C    0.913
    31   8 O    1.942 --    29 C    1.006    70 H    0.836
    32   6 C    3.987 --    72 H    0.985    29 C    0.984    73 H    0.983
                            71 H    0.982
    33   6 C    3.953 --    35 N    0.960    36 C    0.960    74 H    0.953
                            30 C    0.913
    34   8 O    2.067 --    30 C    1.740    28 N    0.198
    35   7 N    3.501 --    37 C    1.358    33 C    0.960    75 H    0.931
                            40 O    0.184
    36   6 C    3.972 --    38 O    1.024    39 C    0.982    33 C    0.960
                            76 H    0.951
    37   6 C    3.945 --    40 O    1.571    35 N    1.358     6 C    0.928
    38   8 O    1.945 --    36 C    1.024    77 H    0.800
    39   6 C    3.992 --    79 H    0.988    80 H    0.985    78 H    0.983
                            36 C    0.982
    40   8 O    1.961 --    37 C    1.571    35 N    0.184
    41   6 C    3.992 --    43 C    1.008    42 C    1.006    81 H    0.964
                             6 C    0.947
    42   6 C    3.992 --    41 C    1.006    82 H    0.986    84 H    0.985
                            83 H    0.977
    43   6 C    3.995 --    44 C    1.023    41 C    1.008    85 H    0.965
                            86 H    0.960
    44   6 C    3.996 --    43 C    1.023    87 H    0.985    88 H    0.984
                            89 H    0.979
    45   1 H    0.995 --     2 C    0.950
    46   1 H    0.968 --     5 N    0.917
    47   1 H    0.995 --     6 C    0.946
    48   1 H    0.996 --     7 C    0.977
    49   1 H    0.997 --     7 C    0.976
    50   1 H    0.997 --     9 C    0.978
    51   1 H    0.995 --     9 C    0.978
    52   1 H    0.992 --    10 C    0.948
    53   1 H    0.996 --    12 C    0.972
    54   1 H    0.997 --    12 C    0.969
    55   1 H    0.957 --    13 N    0.916
    56   1 H    0.993 --    14 C    0.970
    57   1 H    0.996 --    14 C    0.976
    58   1 H    0.984 --    16 S    0.976
    59   1 H    0.994 --    17 C    0.969
    60   1 H    0.990 --    17 C    0.961
    61   1 H    0.965 --    19 N    0.943
    62   1 H    0.993 --    21 C    0.949
    63   1 H    0.952 --    23 N    0.905
    64   1 H    0.996 --    24 C    0.977
    65   1 H    0.998 --    24 C    0.980
    66   1 H    0.998 --    24 C    0.983
    67   1 H    0.991 --    26 C    0.945
    68   1 H    0.961 --    28 N    0.915
    69   1 H    0.998 --    29 C    0.963
    70   1 H    0.891 --    31 O    0.836
    71   1 H    0.996 --    32 C    0.982
    72   1 H    0.997 --    32 C    0.985
    73   1 H    0.998 --    32 C    0.983
    74   1 H    0.998 --    33 C    0.953
    75   1 H    0.961 --    35 N    0.931
    76   1 H    0.999 --    36 C    0.951
    77   1 H    0.884 --    38 O    0.800
    78   1 H    0.995 --    39 C    0.983
    79   1 H    0.997 --    39 C    0.988
    80   1 H    0.999 --    39 C    0.985
    81   1 H    0.999 --    41 C    0.964
    82   1 H    0.998 --    42 C    0.986
    83   1 H    0.996 --    42 C    0.977
    84   1 H    0.998 --    42 C    0.985
    85   1 H    0.999 --    43 C    0.965
    86   1 H    0.999 --    43 C    0.960
    87   1 H    0.998 --    44 C    0.985
    88   1 H    0.999 --    44 C    0.984
    89   1 H    0.998 --    44 C    0.979
 ---------------------------------------------------------------------------

Topologies differ in total number of bonds
Writing topology from bond orders to xtbtopo.mol

molecular dipole:
                 x           y           z       tot (Debye)
 q only:        3.020      -0.959       1.711
   full:        2.883      -1.377       1.431       8.897
molecular quadrupole (traceless):
                xx          xy          yy          xz          yz          zz
 q only:       18.310      -5.610      17.966     -21.994      -7.423     -36.276
  q+dip:       12.963     -10.277      28.382     -29.357     -13.568     -41.345
   full:       13.350      -9.810      27.973     -29.906     -12.125     -41.323


           -------------------------------------------------
          | TOTAL ENERGY             -141.059748786871 Eh   |
          | GRADIENT NORM               0.314684765872 Eh/α |
          | HOMO-LUMO GAP               3.621961596554 eV   |
           -------------------------------------------------

------------------------------------------------------------------------
 * finished run on 2026/05/23 at 12:25:20.648     
------------------------------------------------------------------------
 total:
 * wall-time:     0 d,  0 h,  0 min, 15.472 sec
 *  cpu-time:     0 d,  0 h,  0 min, 18.409 sec
 * ratio c/w:     1.190 speedup
 SCF:
 * wall-time:     0 d,  0 h,  0 min, 14.917 sec
 *  cpu-time:     0 d,  0 h,  0 min, 17.670 sec
 * ratio c/w:     1.185 speedup

normal termination of xtb
