      -----------------------------------------------------------      
     |                   =====================                   |     
     |                           x T B                           |     
     |                   =====================                   |     
     |                         S. Grimme                         |     
     |          Mulliken Center for Theoretical Chemistry        |     
     |                    University of Bonn                     |     
      -----------------------------------------------------------      

   * xtb version 6.7.1 (26dd68d) compiled by 'froitzheim@fs7' on 2026-05-14

   xtb is free software: you can redistribute it and/or modify it under
   the terms of the GNU Lesser General Public License as published by
   the Free Software Foundation, either version 3 of the License, or
   (at your option) any later version.
   
   xtb is distributed in the hope that it will be useful,
   but WITHOUT ANY WARRANTY; without even the implied warranty of
   MERCHANTABILITY or FITNESS FOR A PARTICULAR PURPOSE.  See the
   GNU Lesser General Public License for more details.
   
   Cite this work as:
   * C. Bannwarth, E. Caldeweyher, S. Ehlert, A. Hansen, P. Pracht,
     J. Seibert, S. Spicher, S. Grimme, WIREs Comput. Mol. Sci., 2020, 11,
     e01493. DOI: 10.1002/wcms.1493
   
   for g-xTB:
   * T. Froitzheim, M. Müller, A. Hansen, S. Grimme, ChemRxiv, 2025, preprint.
     DOI: 10.26434/chemrxiv-2025-bjxv
   for GFN2-xTB:
   * C. Bannwarth, S. Ehlert and S. Grimme., J. Chem. Theory Comput., 2019,
     15, 1652-1671. DOI: 10.1021/acs.jctc.8b01176
   for GFN1-xTB:
   * S. Grimme, C. Bannwarth, P. Shushkov, J. Chem. Theory Comput., 2017,
     13, 1989-2009. DOI: 10.1021/acs.jctc.7b00118
   for GFN0-xTB:
   * P. Pracht, E. Caldeweyher, S. Ehlert, S. Grimme, ChemRxiv, 2019, preprint.
     DOI: 10.26434/chemrxiv.8326202.v1
   for GFN-FF:
   * S. Spicher and S. Grimme, Angew. Chem. Int. Ed., 2020, 59, 15665-15673.
     DOI: 10.1002/anie.202004239
   
   for ALPB and GBSA implicit solvation:
   * S. Ehlert, M. Stahn, S. Spicher, S. Grimme, J. Chem. Theory Comput.,
     2021, 17, 4250-4261. DOI: 10.1021/acs.jctc.1c00471
   
   for ddCOSMO and CPCM-X implicit solvation:
   * M. Stahn, S. Ehlert, S. Grimme, J. Phys. Chem. A,
     2023, XX, XXXX-XXXX. DOI: 10.1021/acs.jpca.3c04382
   
   for DFT-D4:
   * E. Caldeweyher, C. Bannwarth and S. Grimme, J. Chem. Phys., 2017,
     147, 034112. DOI: 10.1063/1.4993215
   * E. Caldeweyher, S. Ehlert, A. Hansen, H. Neugebauer, S. Spicher,
     C. Bannwarth and S. Grimme, J. Chem. Phys., 2019, 150, 154122.
     DOI: 10.1063/1.5090222
   * E. Caldeweyher, J.-M. Mewes, S. Ehlert and S. Grimme, Phys. Chem. Chem. Phys.
     2020, 22, 8499-8512. DOI: 10.1039/D0CP00502A
   
   for sTDA-xTB:
   * S. Grimme and C. Bannwarth, J. Chem. Phys., 2016, 145, 054103.
     DOI: 10.1063/1.4959605
   
   in the mass-spec context:
   * V. Asgeirsson, C. Bauer and S. Grimme, Chem. Sci., 2017, 8, 4879.
     DOI: 10.1039/c7sc00601b
   * J. Koopman and S. Grimme, ACS Omega 2019, 4, 12, 15120-15133.
     DOI: 10.1021/acsomega.9b02011
   
   for metadynamics refer to:
   * S. Grimme, J. Chem. Theory Comput., 2019, 155, 2847-2862
     DOI: 10.1021/acs.jctc.9b00143
   
   for SPH calculations refer to:
   * S. Spicher and S. Grimme, J. Chem. Theory Comput., 2021, 17, 1701-1714
     DOI: 10.1021/acs.jctc.0c01306
   
   for ONIOM refer to:
   * C. Plett, A. Katbashev, S. Ehlert, S. Grimme, M. Bursch,
     Phys. Chem. Chem. Phys., 2023, 25, 17860-17868. DOI: 10.1039/D3CP02178E
   
   for DIPRO refer to:
   * J. Kohn, N. Gildemeister, S. Grimme, D. Fazzi, A. Hansen,
     J. Chem. Phys. 159, 144106 (2023). DOI: 10.1063/5.0167484
   
   for PTB refer to:
   * S. Grimme, M. Mueller, A. Hansen, J. Chem. Phys., 2023, 158, 124111.
     DOI: 10.1063/5.0137838
   
   with help from (in alphabetical order)
   P. Atkinson, C. Bannwarth, F. Bohle, G. Brandenburg, E. Caldeweyher,
   M. Checinski, S. Dohm, S. Ehlert, S. Ehrlich, M. Friede, T. Froitzheim,
   I. Gerasimov, C. Hölzer, A. Katbashev, J. Kohn, J. Koopman, C. Lavigne,
   S. Lehtola, F. März, M. Müller, F. Musil, H. Neugebauer, J. Pisarek,
   C. Plett, P. Pracht, F. Pultar, J. Seibert, P. Shushkov, S. Spicher,
   M. Stahn, M. Steiner, T. Strunk, J. Stückrath, T. Rose, and J. Unsleber
   
 * started run on 2026/05/23 at 12:42:17.042     
   ID    Z sym.   atoms
    1    7 N      1, 5, 13, 19, 23, 28, 35
    2    6 C      2, 3, 6-10, 12, 14, 15, 17, 20, 21, 24-26, 29, 30, 32, 33,
                  36, 37, 39, 41-44
    3    8 O      4, 11, 18, 22, 27, 31, 34, 38, 40
    4   16 S      16
    5    1 H      45-89

           -------------------------------------------------
          |                Calculation Setup                |
           -------------------------------------------------

          program call               : /home/xchen/software/xtb-6.7.1-gxtb/bin/xtb /home/xchen/Test/benchmark/md_sampled/06_7_0793_0/snap_0130.xyz --charge 0 --gxtb --norestart
          coordinate file            : /home/xchen/Test/benchmark/md_sampled/06_7_0793_0/snap_0130.xyz
          omp threads                :                    48

core increment energy         -2.3123015384480E+03 Eh
dispersion energy              2.1432881953801E-02 Eh
molecular charge               0.0000000000000E+00 e
number of electrons            2.4799999999781E+02 e
number of unpaired electrons   0.0000000000000E+00 e
wavefunction                   restricted
integral cutoff                2.6907767250513E+01 bohr
energy convergence             1.0000000000000E-06 Eh
density convergence            2.0000000000000E-05 e

------------------------------------------------------------
  cycle        total energy    energy error   density error
------------------------------------------------------------
      1     -2513.336390036  -2.0105628E+02   0.0000000E+00
      2     -2513.736242876  -3.9985284E-01   2.1616055E-02
      3     -2513.989154128  -2.5291125E-01   1.6971470E-02
      4     -2514.511202536  -5.2204841E-01   1.3406487E-02
      5     -2514.519982461  -8.7799252E-03   1.0815748E-03
      6     -2514.520495180  -5.1271945E-04   1.9644478E-04
      7     -2514.520546894  -5.1713569E-05   5.9032190E-05
      8     -2514.520551217  -4.3227318E-06   1.4408646E-05
      9     -2514.520551811  -5.9486976E-07   4.2480869E-06
------------------------------------------------------------

electronic energy             -2.0224044624545E+02 Eh
total energy                  -2.5145205518115E+03 Eh

Post processing:
 | Mayer-Wiberg bond orders
 | Molecular Multipole Moments

 total:                                  15.036 sec
 - increment                              0.000 sec (  0%)
 - repulsion                              0.013 sec (  0%)
 - dispersion                             0.624 sec (  4%)
 - coulomb                                0.236 sec (  1%)
 - exchange                               0.022 sec (  0%)
 - hamiltonian                            0.449 sec (  2%)
 - acp                                    1.178 sec (  7%)
 - spin polarization                      0.000 sec (  0%)
 - post processing                        0.171 sec (  1%)
 - scc                                   11.450 sec ( 76%)
 - coulomb gradient                       0.070 sec (  0%)
 - dispersion gradient                    0.054 sec (  0%)
 - exchange gradient                      0.186 sec (  1%)
 - repulsion gradient                     0.006 sec (  0%)
 - acp gradient                           0.275 sec (  1%)
 - hamiltonian gradient                   0.448 sec (  2%)
 - gradient                               1.040 sec (  6%)

         :::::::::::::::::::::::::::::::::::::::::::::::::::::
         ::                     SUMMARY                     ::
         :::::::::::::::::::::::::::::::::::::::::::::::::::::
         :: total energy           -2514.520551811500 Eh    ::
         :: gradient norm              0.332445718931 Eh/a0 ::
         :: HOMO-LUMO gap              8.914639546045 eV    ::
         ::.................................................::
         :: add. restraining           0.000000000000 Eh    ::
         :: total charge              -0.000000000000 e     ::
         :::::::::::::::::::::::::::::::::::::::::::::::::::::

           -------------------------------------------------
          |                Property Printout                |
           -------------------------------------------------

    * Orbital Energies and Occupations
------------------------------------------------------------------
      #    Occupation            Energy/Eh            Energy/eV
------------------------------------------------------------------
      1        2.0000           -1.3651808             -37.1485
    ...           ...                  ...                  ...
    112        2.0000           -0.3915533             -10.6547
    113        2.0000           -0.3884607             -10.5706
    114        2.0000           -0.3866491             -10.5213
    115        2.0000           -0.3856650             -10.4945
    116        2.0000           -0.3829883             -10.4216
    117        2.0000           -0.3706865             -10.0869
    118        2.0000           -0.3687187             -10.0333
    119        2.0000           -0.3661528              -9.9635
    120        2.0000           -0.3611947              -9.8286
    121        2.0000           -0.3587783              -9.7629
    122        2.0000           -0.3576106              -9.7311
    123        2.0000           -0.3502384              -9.5305
    124        2.0000           -0.3469395              -9.4407 (HOMO)
    125                         -0.0193325              -0.5261 (LUMO)
    126                          0.0048936               0.1332
    127                          0.0104274               0.2837
    128                          0.0247894               0.6746
    129                          0.0265393               0.7222
    130                          0.0329433               0.8964
    131                          0.0447188               1.2169
    132                          0.0462144               1.2576
    133                          0.0634494               1.7265
    134                          0.1271477               3.4599
    135                          0.1311629               3.5691
    ...                                ...                  ...
    226                          0.7343477              19.9826
------------------------------------------------------------------
               HL-Gap            0.3276070 Eh            8.9146 eV
------------------------------------------------------------------

Atomic charges and shell populations (in atomic units):
-----------------------------------------------------------------
     #    Z                q          p(s)       p(p)       p(d)
-----------------------------------------------------------------
     1    7 N      -0.236795      1.325902   3.910893
     2    6 C       0.022252      1.126021   2.851727
     3    6 C       0.438376      1.096651   2.464974
     4    8 O      -0.522206      1.850747   4.671459
     5    7 N      -0.342616      1.344824   3.997792
     6    6 C      -0.009626      1.138536   2.871090
     7    6 C      -0.053085      1.127975   2.925111
     8    6 C       0.397052      1.102859   2.500089
     9    6 C      -0.181551      1.156692   3.024860
    10    6 C       0.006035      1.101127   2.892838
    11    8 O      -0.570870      1.861259   4.709610
    12    6 C      -0.171155      1.151254   3.019902
    13    7 N      -0.335950      1.365931   3.970019
    14    6 C      -0.128271      1.184491   2.943780
    15    6 C       0.411160      1.097935   2.490905
    16   16 S      -0.258248      1.872331   4.340607   0.045310
    17    6 C      -0.078507      1.145597   2.932910
    18    8 O      -0.522058      1.853902   4.668156
    19    7 N      -0.363668      1.399380   3.964289
    20    6 C       0.425987      1.117490   2.456523
    21    6 C       0.005309      1.133743   2.860949
    22    8 O      -0.527548      1.852502   4.675045
    23    7 N      -0.356695      1.353534   4.003161
    24    6 C      -0.258524      1.183492   3.075031
    25    6 C       0.429239      1.098494   2.472268
    26    6 C      -0.022551      1.126592   2.895959
    27    8 O      -0.509638      1.853178   4.656460
    28    7 N      -0.319649      1.355661   3.963988
    29    6 C       0.101142      1.107995   2.790862
    30    6 C       0.392888      1.095277   2.511835
    31    8 O      -0.513483      1.808216   4.705267
    32    6 C      -0.264745      1.178674   3.086071
    33    6 C      -0.018189      1.138595   2.879595
    34    8 O      -0.568805      1.854758   4.714047
    35    7 N      -0.338307      1.398504   3.939803
    36    6 C       0.096654      1.133561   2.769784
    37    6 C       0.435402      1.112266   2.452332
    38    8 O      -0.578201      1.812931   4.765270
    39    6 C      -0.259970      1.163771   3.096199
    40    8 O      -0.535253      1.844010   4.691243
    41    6 C      -0.117050      1.156135   2.960915
    42    6 C      -0.239807      1.164050   3.075757
    43    6 C      -0.203437      1.142045   3.061392
    44    6 C      -0.258656      1.168461   3.090196
    45    1 H       0.141246      0.858754
    46    1 H       0.280179      0.719821
    47    1 H       0.137044      0.862956
    48    1 H       0.098834      0.901166
    49    1 H       0.089480      0.910520
    50    1 H       0.099902      0.900098
    51    1 H       0.098295      0.901705
    52    1 H       0.145734      0.854266
    53    1 H       0.120760      0.879240
    54    1 H       0.112191      0.887809
    55    1 H       0.278232      0.721768
    56    1 H       0.107725      0.892275
    57    1 H       0.112022      0.887978
    58    1 H       0.186445      0.813555
    59    1 H       0.131497      0.868503
    60    1 H       0.129961      0.870039
    61    1 H       0.269006      0.730994
    62    1 H       0.130315      0.869685
    63    1 H       0.268025      0.731975
    64    1 H       0.119605      0.880395
    65    1 H       0.101801      0.898199
    66    1 H       0.099163      0.900837
    67    1 H       0.166253      0.833747
    68    1 H       0.285553      0.714447
    69    1 H       0.100466      0.899534
    70    1 H       0.345965      0.654035
    71    1 H       0.093304      0.906696
    72    1 H       0.100927      0.899073
    73    1 H       0.091769      0.908231
    74    1 H       0.128091      0.871909
    75    1 H       0.273807      0.726193
    76    1 H       0.102997      0.897003
    77    1 H       0.375365      0.624635
    78    1 H       0.102864      0.897136
    79    1 H       0.113284      0.886716
    80    1 H       0.101784      0.898216
    81    1 H       0.095945      0.904055
    82    1 H       0.105144      0.894856
    83    1 H       0.081327      0.918673
    84    1 H       0.105319      0.894681
    85    1 H       0.120245      0.879755
    86    1 H       0.101141      0.898859
    87    1 H       0.086896      0.913104
    88    1 H       0.078919      0.921081
    89    1 H       0.088790      0.911210
-----------------------------------------------------------------


Wiberg/Mayer (AO) data.
largest (>0.10) Wiberg bond orders for each atom

 ---------------------------------------------------------------------------
     #   Z sym  total        # sym  WBO       # sym  WBO       # sym  WBO
 ---------------------------------------------------------------------------
     1   7 N    3.431 --     8 C    1.240     7 C    0.977     2 C    0.953
                            11 C    0.153
     2   6 C    3.920 --    12 C    0.969     1 N    0.953    45 N    0.933
                             3 C    0.922
     3   6 C    3.869 --     4 C    1.695     5 N    1.178     2 C    0.922
     4   8 C    1.970 --     3 C    1.695     5 N    0.163
     5   7 N    3.317 --     3 C    1.178     6 C    1.008    46 N    0.865
                             4 C    0.163
     6   6 C    3.935 --     5 N    1.008    47 N    0.938    41 C    0.921
                            37 C    0.918
     7   6 C    3.923 --     9 C    0.990     1 N    0.977    48 N    0.951
                            49 N    0.944
     8   6 C    3.880 --    11 C    1.591     1 N    1.240    10 C    0.940
     9   6 C    3.961 --    12 C    1.013     7 C    0.990    51 N    0.962
                            50 N    0.958
    10   6 C    3.946 --    14 C    0.983    13 N    0.974     8 C    0.940
                            52 N    0.923
    11   8 C    1.875 --     8 C    1.591     1 N    0.153
    12   6 C    3.956 --     9 C    1.013     2 C    0.969    53 N    0.960
                            54 N    0.956
    13   7 N    3.331 --    15 C    1.217    10 C    0.974    55 N    0.875
                            18 C    0.170
    14   6 C    3.931 --    10 C    0.983    16 O    0.981    57 N    0.953
                            56 N    0.952
    15   6 C    3.871 --    18 C    1.674    13 N    1.217    17 C    0.924
    16  16 O    2.004 --    14 C    0.981    58 N    0.958
    17   6 C    3.917 --    19 N    0.977    59 N    0.952    60 N    0.948
                            15 C    0.924
    18   8 C    1.963 --    15 C    1.674    13 N    0.170
    19   7 N    3.246 --    20 C    1.147    17 C    0.977    61 N    0.894
                            22 C    0.143
    20   6 C    3.846 --    22 C    1.690    19 N    1.147    21 C    0.938
    21   6 C    3.931 --    23 N    0.983    24 C    0.959    20 C    0.938
                            62 N    0.934
    22   8 C    1.981 --    20 C    1.690    19 N    0.143
    23   7 N    3.302 --    25 C    1.178    21 C    0.983    63 N    0.886
                            27 C    0.167
    24   6 C    3.943 --    66 N    0.976    65 N    0.972    64 N    0.971
                            21 C    0.959
    25   6 C    3.871 --    27 C    1.697    23 N    1.178    26 C    0.919
    26   6 C    3.917 --    28 N    0.974    29 C    0.935    67 N    0.920
                            25 C    0.919
    27   8 C    1.978 --    25 C    1.697    23 N    0.167
    28   7 N    3.381 --    30 C    1.298    26 C    0.974    68 N    0.836
                            34 C    0.168
    29   6 C    3.912 --    32 C    1.000    31 C    0.982    69 N    0.939
                            26 C    0.935
    30   6 C    3.892 --    34 C    1.598    28 N    1.298    33 C    0.926
    31   8 C    1.935 --    29 C    0.982    70 N    0.858
    32   6 C    3.956 --    29 C    1.000    73 N    0.972    71 N    0.971
                            72 N    0.967
    33   6 C    3.935 --    36 C    0.961    35 N    0.959    74 N    0.937
                            30 C    0.926
    34   8 C    1.893 --    30 C    1.598    28 N    0.168
    35   7 N    3.269 --    37 C    1.184    33 C    0.959    75 N    0.888
                            40 C    0.141
    36   6 C    3.896 --    39 C    0.997    33 C    0.961    76 N    0.946
                            38 C    0.940
    37   6 C    3.837 --    40 C    1.660    35 N    1.184     6 C    0.918
    38   8 C    1.916 --    36 C    0.940    77 N    0.807
    39   6 C    3.950 --    36 C    0.997    80 N    0.972    79 N    0.970
                            78 N    0.967
    40   8 C    2.005 --    37 C    1.660    35 N    0.141
    41   6 C    3.967 --    42 C    1.013    43 C    0.998    81 N    0.947
                             6 C    0.921
    42   6 C    3.957 --    41 C    1.013    82 N    0.971    83 N    0.969
                            84 N    0.967
    43   6 C    3.967 --    44 C    1.011    41 C    0.998    86 N    0.960
                            85 N    0.956
    44   6 C    3.960 --    43 C    1.011    89 N    0.979    87 N    0.975
                            88 N    0.972
    45   1 N    0.980 --     2 C    0.933
    46   1 N    0.921 --     5 N    0.865
    47   1 N    0.981 --     6 C    0.938
    48   1 N    0.990 --     7 C    0.951
    49   1 N    0.992 --     7 C    0.944
    50   1 N    0.990 --     9 C    0.958
    51   1 N    0.990 --     9 C    0.962
    52   1 N    0.979 --    10 C    0.923
    53   1 N    0.985 --    12 C    0.960
    54   1 N    0.987 --    12 C    0.956
    55   1 N    0.923 --    13 N    0.875
    56   1 N    0.988 --    14 C    0.952
    57   1 N    0.987 --    14 C    0.953
    58   1 N    0.965 --    16 O    0.958
    59   1 N    0.983 --    17 C    0.952
    60   1 N    0.983 --    17 C    0.948
    61   1 N    0.928 --    19 N    0.894
    62   1 N    0.983 --    21 C    0.934
    63   1 N    0.928 --    23 N    0.886
    64   1 N    0.986 --    24 C    0.971
    65   1 N    0.990 --    24 C    0.972
    66   1 N    0.990 --    24 C    0.976
    67   1 N    0.972 --    26 C    0.920
    68   1 N    0.918 --    28 N    0.836
    69   1 N    0.990 --    29 C    0.939
    70   1 N    0.880 --    31 C    0.858
    71   1 N    0.991 --    32 C    0.971
    72   1 N    0.990 --    32 C    0.967
    73   1 N    0.992 --    32 C    0.972
    74   1 N    0.984 --    33 C    0.937
    75   1 N    0.925 --    35 N    0.888
    76   1 N    0.989 --    36 C    0.946
    77   1 N    0.859 --    38 C    0.807
    78   1 N    0.989 --    39 C    0.967
    79   1 N    0.987 --    39 C    0.970
    80   1 N    0.990 --    39 C    0.972
    81   1 N    0.991 --    41 C    0.947
    82   1 N    0.989 --    42 C    0.971
    83   1 N    0.993 --    42 C    0.969
    84   1 N    0.989 --    42 C    0.967
    85   1 N    0.986 --    43 C    0.956
    86   1 N    0.990 --    43 C    0.960
    87   1 N    0.992 --    44 C    0.975
    88   1 N    0.994 --    44 C    0.972
    89   1 N    0.992 --    44 C    0.979
 ---------------------------------------------------------------------------

Topologies differ in total number of bonds
Writing topology from bond orders to xtbtopo.mol

Atomic dipole moments (in atomic units):
---------------------------------------------------------
     #    Z                 x            y            z
---------------------------------------------------------
           total     1.389098    -1.079255     2.179701
---------------------------------------------------------
         |total|     2.800979     7.119378 Debye


           -------------------------------------------------
          | TOTAL ENERGY            -2514.520551811500 Eh   |
          | GRADIENT NORM               0.332445718931 Eh/α |
           -------------------------------------------------

------------------------------------------------------------------------
 * finished run on 2026/05/23 at 12:42:33.155     
------------------------------------------------------------------------
 total:
 * wall-time:     0 d,  0 h,  0 min, 16.113 sec
 *  cpu-time:     0 d,  0 h,  0 min, 25.746 sec
 * ratio c/w:     1.598 speedup
 SCF:
 * wall-time:     0 d,  0 h,  0 min, 15.703 sec
 *  cpu-time:     0 d,  0 h,  0 min, 25.408 sec
 * ratio c/w:     1.618 speedup

normal termination of xtb
