      -----------------------------------------------------------      
     |                   =====================                   |     
     |                           x T B                           |     
     |                   =====================                   |     
     |                         S. Grimme                         |     
     |          Mulliken Center for Theoretical Chemistry        |     
     |                    University of Bonn                     |     
      -----------------------------------------------------------      

   * xtb version 6.7.1 (26dd68d) compiled by 'froitzheim@fs7' on 2026-05-14

   xtb is free software: you can redistribute it and/or modify it under
   the terms of the GNU Lesser General Public License as published by
   the Free Software Foundation, either version 3 of the License, or
   (at your option) any later version.
   
   xtb is distributed in the hope that it will be useful,
   but WITHOUT ANY WARRANTY; without even the implied warranty of
   MERCHANTABILITY or FITNESS FOR A PARTICULAR PURPOSE.  See the
   GNU Lesser General Public License for more details.
   
   Cite this work as:
   * C. Bannwarth, E. Caldeweyher, S. Ehlert, A. Hansen, P. Pracht,
     J. Seibert, S. Spicher, S. Grimme, WIREs Comput. Mol. Sci., 2020, 11,
     e01493. DOI: 10.1002/wcms.1493
   
   for g-xTB:
   * T. Froitzheim, M. Müller, A. Hansen, S. Grimme, ChemRxiv, 2025, preprint.
     DOI: 10.26434/chemrxiv-2025-bjxv
   for GFN2-xTB:
   * C. Bannwarth, S. Ehlert and S. Grimme., J. Chem. Theory Comput., 2019,
     15, 1652-1671. DOI: 10.1021/acs.jctc.8b01176
   for GFN1-xTB:
   * S. Grimme, C. Bannwarth, P. Shushkov, J. Chem. Theory Comput., 2017,
     13, 1989-2009. DOI: 10.1021/acs.jctc.7b00118
   for GFN0-xTB:
   * P. Pracht, E. Caldeweyher, S. Ehlert, S. Grimme, ChemRxiv, 2019, preprint.
     DOI: 10.26434/chemrxiv.8326202.v1
   for GFN-FF:
   * S. Spicher and S. Grimme, Angew. Chem. Int. Ed., 2020, 59, 15665-15673.
     DOI: 10.1002/anie.202004239
   
   for ALPB and GBSA implicit solvation:
   * S. Ehlert, M. Stahn, S. Spicher, S. Grimme, J. Chem. Theory Comput.,
     2021, 17, 4250-4261. DOI: 10.1021/acs.jctc.1c00471
   
   for ddCOSMO and CPCM-X implicit solvation:
   * M. Stahn, S. Ehlert, S. Grimme, J. Phys. Chem. A,
     2023, XX, XXXX-XXXX. DOI: 10.1021/acs.jpca.3c04382
   
   for DFT-D4:
   * E. Caldeweyher, C. Bannwarth and S. Grimme, J. Chem. Phys., 2017,
     147, 034112. DOI: 10.1063/1.4993215
   * E. Caldeweyher, S. Ehlert, A. Hansen, H. Neugebauer, S. Spicher,
     C. Bannwarth and S. Grimme, J. Chem. Phys., 2019, 150, 154122.
     DOI: 10.1063/1.5090222
   * E. Caldeweyher, J.-M. Mewes, S. Ehlert and S. Grimme, Phys. Chem. Chem. Phys.
     2020, 22, 8499-8512. DOI: 10.1039/D0CP00502A
   
   for sTDA-xTB:
   * S. Grimme and C. Bannwarth, J. Chem. Phys., 2016, 145, 054103.
     DOI: 10.1063/1.4959605
   
   in the mass-spec context:
   * V. Asgeirsson, C. Bauer and S. Grimme, Chem. Sci., 2017, 8, 4879.
     DOI: 10.1039/c7sc00601b
   * J. Koopman and S. Grimme, ACS Omega 2019, 4, 12, 15120-15133.
     DOI: 10.1021/acsomega.9b02011
   
   for metadynamics refer to:
   * S. Grimme, J. Chem. Theory Comput., 2019, 155, 2847-2862
     DOI: 10.1021/acs.jctc.9b00143
   
   for SPH calculations refer to:
   * S. Spicher and S. Grimme, J. Chem. Theory Comput., 2021, 17, 1701-1714
     DOI: 10.1021/acs.jctc.0c01306
   
   for ONIOM refer to:
   * C. Plett, A. Katbashev, S. Ehlert, S. Grimme, M. Bursch,
     Phys. Chem. Chem. Phys., 2023, 25, 17860-17868. DOI: 10.1039/D3CP02178E
   
   for DIPRO refer to:
   * J. Kohn, N. Gildemeister, S. Grimme, D. Fazzi, A. Hansen,
     J. Chem. Phys. 159, 144106 (2023). DOI: 10.1063/5.0167484
   
   for PTB refer to:
   * S. Grimme, M. Mueller, A. Hansen, J. Chem. Phys., 2023, 158, 124111.
     DOI: 10.1063/5.0137838
   
   with help from (in alphabetical order)
   P. Atkinson, C. Bannwarth, F. Bohle, G. Brandenburg, E. Caldeweyher,
   M. Checinski, S. Dohm, S. Ehlert, S. Ehrlich, M. Friede, T. Froitzheim,
   I. Gerasimov, C. Hölzer, A. Katbashev, J. Kohn, J. Koopman, C. Lavigne,
   S. Lehtola, F. März, M. Müller, F. Musil, H. Neugebauer, J. Pisarek,
   C. Plett, P. Pracht, F. Pultar, J. Seibert, P. Shushkov, S. Spicher,
   M. Stahn, M. Steiner, T. Strunk, J. Stückrath, T. Rose, and J. Unsleber
   
 * started run on 2026/05/23 at 12:30:37.111     
   ID    Z sym.   atoms
    1    7 N      1, 5, 10, 17, 18, 26, 33, 36, 42, 49, 54
    2    6 C      2, 3, 6-8, 11-14, 19-22, 24, 25, 27-30, 32, 34, 37, 39, 40,
                  43-45, 47, 50-52, 55
    3    8 O      4, 9, 15, 16, 23, 31, 35, 38, 41, 46, 48, 53, 56
    4    1 H      57-109

           -------------------------------------------------
          |                Calculation Setup                |
           -------------------------------------------------

          program call               : /home/xchen/software/xtb-6.7.1-gxtb/bin/xtb /home/xchen/Test/benchmark/md_sampled/08_7_0366_0/snap_0033.xyz --charge 0 --gxtb --norestart
          coordinate file            : /home/xchen/Test/benchmark/md_sampled/08_7_0366_0/snap_0033.xyz
          omp threads                :                    48

core increment energy         -2.5714958258590E+03 Eh
dispersion energy              2.8922726226669E-02 Eh
molecular charge               0.0000000000000E+00 e
number of electrons            3.1399999999720E+02 e
number of unpaired electrons   0.0000000000000E+00 e
wavefunction                   restricted
integral cutoff                2.6907767250513E+01 bohr
energy convergence             1.0000000000000E-06 Eh
density convergence            2.0000000000000E-05 e

------------------------------------------------------------
  cycle        total energy    energy error   density error
------------------------------------------------------------
      1     -2830.069967711  -2.5860306E+02   0.0000000E+00
      2     -2830.578961834  -5.0899412E-01   1.9161926E-02
      3     -2830.913286754  -3.3432492E-01   1.5292085E-02
      4     -2831.640411590  -7.2712484E-01   1.2218925E-02
      5     -2831.651558715  -1.1147125E-02   9.5465847E-04
      6     -2831.652295225  -7.3650965E-04   1.9226289E-04
      7     -2831.652356924  -6.1698457E-05   6.1774050E-05
      8     -2831.652363574  -6.6501206E-06   2.1494581E-05
      9     -2831.652364364  -7.9042172E-07   3.2015186E-06
------------------------------------------------------------

electronic energy             -2.6018546123129E+02 Eh
total energy                  -2.8316523643641E+03 Eh

Post processing:
 | Mayer-Wiberg bond orders
 | Molecular Multipole Moments

 total:                                  14.644 sec
 - increment                              0.000 sec (  0%)
 - repulsion                              0.009 sec (  0%)
 - dispersion                             0.662 sec (  4%)
 - coulomb                                0.211 sec (  1%)
 - exchange                               0.010 sec (  0%)
 - hamiltonian                            0.559 sec (  3%)
 - acp                                    0.476 sec (  3%)
 - spin polarization                      0.000 sec (  0%)
 - post processing                        0.231 sec (  1%)
 - scc                                   11.700 sec ( 79%)
 - coulomb gradient                       0.087 sec (  0%)
 - dispersion gradient                    0.038 sec (  0%)
 - exchange gradient                      0.143 sec (  0%)
 - repulsion gradient                     0.009 sec (  0%)
 - acp gradient                           0.271 sec (  1%)
 - hamiltonian gradient                   0.459 sec (  3%)
 - gradient                               1.007 sec (  6%)

         :::::::::::::::::::::::::::::::::::::::::::::::::::::
         ::                     SUMMARY                     ::
         :::::::::::::::::::::::::::::::::::::::::::::::::::::
         :: total energy           -2831.652364364058 Eh    ::
         :: gradient norm              0.491359508752 Eh/a0 ::
         :: HOMO-LUMO gap              9.565519066805 eV    ::
         ::.................................................::
         :: add. restraining           0.000000000000 Eh    ::
         :: total charge              -0.000000000000 e     ::
         :::::::::::::::::::::::::::::::::::::::::::::::::::::

           -------------------------------------------------
          |                Property Printout                |
           -------------------------------------------------

    * Orbital Energies and Occupations
------------------------------------------------------------------
      #    Occupation            Energy/Eh            Energy/eV
------------------------------------------------------------------
      1        2.0000           -1.3421698             -36.5223
    ...           ...                  ...                  ...
    145        2.0000           -0.3867115             -10.5230
    146        2.0000           -0.3842452             -10.4558
    147        2.0000           -0.3786043             -10.3023
    148        2.0000           -0.3714945             -10.1089
    149        2.0000           -0.3686511             -10.0315
    150        2.0000           -0.3675503             -10.0016
    151        2.0000           -0.3658642              -9.9557
    152        2.0000           -0.3642702              -9.9123
    153        2.0000           -0.3609047              -9.8207
    154        2.0000           -0.3601563              -9.8004
    155        2.0000           -0.3541983              -9.6382
    156        2.0000           -0.3504185              -9.5354
    157        2.0000           -0.3453329              -9.3970 (HOMO)
    158                          0.0061935               0.1685 (LUMO)
    159                          0.0124164               0.3379
    160                          0.0135574               0.3689
    161                          0.0170579               0.4642
    162                          0.0185130               0.5038
    163                          0.0233419               0.6352
    164                          0.0261449               0.7114
    165                          0.0273611               0.7445
    166                          0.0275641               0.7501
    167                          0.0426939               1.1618
    168                          0.0475301               1.2934
    ...                                ...                  ...
    277                          0.7394698              20.1220
------------------------------------------------------------------
               HL-Gap            0.3515263 Eh            9.5655 eV
------------------------------------------------------------------

Atomic charges and shell populations (in atomic units):
------------------------------------------------------
     #    Z                q          p(s)       p(p)
------------------------------------------------------
     1    7 N      -0.356240      1.411871   3.944370
     2    6 C       0.009153      1.130578   2.860269
     3    6 C       0.384594      1.144867   2.470539
     4    8 O      -0.568878      1.865183   4.703695
     5    7 N      -0.338902      1.360902   3.978000
     6    6 C      -0.009759      1.133780   2.875979
     7    6 C       0.417263      1.131175   2.451562
     8    6 C      -0.007482      1.119409   2.888073
     9    8 O      -0.489355      1.861088   4.628267
    10    7 N      -0.356568      1.359018   3.997549
    11    6 C      -0.198340      1.149101   3.049239
    12    6 C       0.425037      1.114350   2.460612
    13    6 C       0.421278      1.093051   2.485671
    14    6 C      -0.001099      1.123911   2.877188
    15    8 O      -0.486532      1.855786   4.630746
    16    8 O      -0.486878      1.854740   4.632138
    17    7 N      -0.438240      1.397719   4.040521
    18    7 N      -0.316641      1.344848   3.971793
    19    6 C      -0.172867      1.158623   3.014244
    20    6 C       0.425295      1.102031   2.472674
    21    6 C      -0.093261      1.107760   2.985501
    22    6 C      -0.008366      1.127337   2.881029
    23    8 O      -0.543935      1.847873   4.696063
    24    6 C      -0.267581      1.154555   3.113026
    25    6 C      -0.251072      1.174681   3.076390
    26    7 N      -0.329161      1.407203   3.921958
    27    6 C      -0.142353      1.151118   2.991235
    28    6 C       0.407918      1.121195   2.470888
    29    6 C      -0.203278      1.159986   3.043292
    30    6 C      -0.027491      1.102598   2.924893
    31    8 O      -0.508488      1.868696   4.639792
    32    6 C       0.387861      1.107258   2.504881
    33    7 N      -0.341572      1.368405   3.973167
    34    6 C       0.095231      1.131866   2.772903
    35    8 O      -0.557712      1.856624   4.701088
    36    7 N      -0.400817      1.431699   3.969118
    37    6 C       0.438879      1.109023   2.452098
    38    8 O      -0.588067      1.830078   4.757989
    39    6 C      -0.265294      1.174759   3.090535
    40    6 C       0.000468      1.103397   2.896135
    41    8 O      -0.477834      1.859144   4.618690
    42    7 N      -0.294335      1.344980   3.949355
    43    6 C      -0.184740      1.158833   3.025907
    44    6 C       0.428364      1.089302   2.482334
    45    6 C      -0.204137      1.169768   3.034369
    46    8 O      -0.518902      1.859261   4.659641
    47    6 C       0.392832      1.102821   2.504347
    48    8 O      -0.573685      1.854407   4.719278
    49    7 N      -0.407335      1.369035   4.038300
    50    6 C      -0.154804      1.140237   3.014567
    51    6 C      -0.187440      1.140912   3.046528
    52    6 C       0.389095      1.103148   2.507757
    53    8 O      -0.544533      1.858443   4.686090
    54    7 N      -0.417377      1.376026   4.041350
    55    6 C       0.045300      1.141916   2.812784
    56    8 O      -0.538584      1.806760   4.731824
    57    1 H       0.248539      0.751461
    58    1 H       0.136777      0.863223
    59    1 H       0.262450      0.737550
    60    1 H       0.146385      0.853615
    61    1 H       0.156003      0.843997
    62    1 H       0.251345      0.748655
    63    1 H       0.118505      0.881495
    64    1 H       0.107282      0.892718
    65    1 H       0.147211      0.852789
    66    1 H       0.244333      0.755667
    67    1 H       0.259714      0.740286
    68    1 H       0.289631      0.710369
    69    1 H       0.109487      0.890513
    70    1 H       0.077805      0.922195
    71    1 H       0.078433      0.921567
    72    1 H       0.163485      0.836515
    73    1 H       0.103763      0.896237
    74    1 H       0.086062      0.913938
    75    1 H       0.080117      0.919883
    76    1 H       0.109091      0.890909
    77    1 H       0.066065      0.933935
    78    1 H       0.091574      0.908426
    79    1 H       0.246134      0.753866
    80    1 H       0.128065      0.871935
    81    1 H       0.111324      0.888676
    82    1 H       0.099637      0.900363
    83    1 H       0.105371      0.894629
    84    1 H       0.170796      0.829204
    85    1 H       0.262511      0.737489
    86    1 H       0.101137      0.898863
    87    1 H       0.254909      0.745091
    88    1 H       0.246048      0.753952
    89    1 H       0.341649      0.658351
    90    1 H       0.097561      0.902439
    91    1 H       0.108248      0.891752
    92    1 H       0.101722      0.898278
    93    1 H       0.127195      0.872805
    94    1 H       0.249727      0.750273
    95    1 H       0.103297      0.896703
    96    1 H       0.115801      0.884199
    97    1 H       0.128400      0.871600
    98    1 H       0.112646      0.887354
    99    1 H       0.269828      0.730172
   100    1 H       0.265143      0.734857
   101    1 H       0.124216      0.875784
   102    1 H       0.135840      0.864160
   103    1 H       0.127440      0.872560
   104    1 H       0.072845      0.927155
   105    1 H       0.246842      0.753158
   106    1 H       0.273149      0.726851
   107    1 H       0.090382      0.909618
   108    1 H       0.081260      0.918740
   109    1 H       0.358189      0.641811
------------------------------------------------------


Wiberg/Mayer (AO) data.
largest (>0.10) Wiberg bond orders for each atom

 ---------------------------------------------------------------------------
     #   Z sym  total        # sym  WBO       # sym  WBO       # sym  WBO
 ---------------------------------------------------------------------------
     1   7 N    3.232 --     7 C    1.115     2 C    0.988    57 O    0.886
                             9 C    0.138
     2   6 C    3.932 --     1 N    0.988    50 C    0.975    58 O    0.936
                             3 C    0.910
     3   6 C    3.841 --     4 C    1.605     5 N    1.240     2 C    0.910
     4   8 C    1.902 --     3 C    1.605     5 N    0.153
     5   7 N    3.334 --     3 C    1.240     6 C    0.960    59 O    0.898
                             4 C    0.153
     6   6 C    3.920 --    55 C    0.963     5 N    0.960    60 O    0.934
                            44 C    0.926
     7   6 C    3.851 --     9 C    1.733     1 N    1.115     8 C    0.912
     8   6 C    3.933 --    11 C    0.991    10 N    0.971    61 O    0.933
                             7 C    0.912
     9   8 C    1.987 --     7 C    1.733     1 N    0.138
    10   7 N    3.284 --    12 C    1.159     8 C    0.971    62 O    0.900
                            15 C    0.152
    11   6 C    3.950 --     8 C    0.991    13 C    0.949    63 O    0.948
                            64 O    0.940
    12   6 C    3.852 --    15 C    1.725    10 N    1.159    14 C    0.888
    13   6 C    3.883 --    16 C    1.728    17 N    1.177    11 C    0.949
    14   6 C    3.937 --    18 N    0.998    19 C    0.974    65 O    0.933
                            12 C    0.888
    15   8 C    2.000 --    12 C    1.725    10 N    0.152
    16   8 C    1.992 --    13 C    1.728    17 N    0.161
    17   7 N    3.203 --    13 C    1.177    66 O    0.921    67 O    0.907
                            16 C    0.161
    18   7 N    3.352 --    20 C    1.216    14 C    0.998    68 O    0.876
                            23 C    0.165
    19   6 C    3.963 --    21 C    0.998    14 C    0.974    70 O    0.954
                            69 O    0.949
    20   6 C    3.863 --    23 C    1.669    18 N    1.216    22 C    0.905
    21   6 C    3.984 --    24 C    1.025    19 C    0.998    25 C    0.991
                            71 O    0.942
    22   6 C    3.928 --    27 C    0.999    26 N    0.948    72 O    0.928
                            20 C    0.905
    23   8 C    1.965 --    20 C    1.669    18 N    0.165
    24   6 C    3.962 --    21 C    1.025    75 O    0.969    74 O    0.967
                            73 O    0.963
    25   6 C    3.956 --    21 C    0.991    77 O    0.978    78 O    0.970
                            76 O    0.969
    26   7 N    3.285 --    28 C    1.207    22 C    0.948    79 O    0.884
                            31 C    0.148
    27   6 C    3.951 --    22 C    0.999    29 C    0.981    81 O    0.953
                            80 O    0.950
    28   6 C    3.869 --    31 C    1.674    26 N    1.207    30 C    0.909
    29   6 C    3.962 --    27 C    0.981    32 C    0.963    83 O    0.952
                            82 O    0.950
    30   6 C    3.940 --    34 C    0.999    33 N    0.976    84 O    0.927
                            28 C    0.909
    31   8 C    1.939 --    28 C    1.674    26 N    0.148
    32   6 C    3.871 --    35 C    1.650    36 N    1.221    29 C    0.963
    33   7 N    3.283 --    37 C    1.135    30 C    0.976    85 O    0.891
                            41 C    0.166
    34   6 C    3.885 --    30 C    0.999    39 C    0.987    86 O    0.942
                            38 C    0.907
    35   8 C    1.907 --    32 C    1.650    36 N    0.143
    36   7 N    3.214 --    32 C    1.221    88 O    0.908    87 O    0.906
                            35 C    0.143
    37   6 C    3.868 --    41 C    1.738    33 N    1.135    40 C    0.925
    38   8 C    1.870 --    34 C    0.907    89 O    0.871
    39   6 C    3.950 --    34 C    0.987    90 O    0.974    91 O    0.973
                            92 O    0.973
    40   6 C    3.945 --    43 C    0.987    42 N    0.969    93 O    0.942
                            37 C    0.925
    41   8 C    2.011 --    37 C    1.738    33 N    0.166
    42   7 N    3.353 --    44 C    1.227    40 C    0.969    94 O    0.899
                            46 C    0.162
    43   6 C    3.958 --    40 C    0.987    45 C    0.984    95 O    0.959
                            96 O    0.955
    44   6 C    3.879 --    46 C    1.650    42 N    1.227     6 C    0.926
    45   6 C    3.950 --    43 C    0.984    47 C    0.958    98 O    0.951
                            97 O    0.939
    46   8 C    1.940 --    44 C    1.650    42 N    0.162
    47   6 C    3.874 --    48 C    1.599    49 N    1.288    45 C    0.958
    48   8 C    1.897 --    47 C    1.599    49 N    0.170
    49   7 N    3.300 --    47 C    1.288   100 O    0.906    99 O    0.895
                            48 C    0.170
    50   6 C    3.950 --    51 C    1.017     2 C    0.975   101 O    0.947
                           102 O    0.934
    51   6 C    3.966 --    50 C    1.017   104 O    0.960    52 C    0.955
                           103 O    0.941
    52   6 C    3.881 --    53 C    1.647    54 N    1.245    51 C    0.955
    53   8 C    1.910 --    52 C    1.647    54 N    0.161
    54   7 N    3.255 --    52 C    1.245   105 O    0.913   106 O    0.901
                            53 C    0.161
    55   6 C    3.893 --    56 C    0.984     6 C    0.963   108 O    0.954
                           107 O    0.946
    56   8 C    1.917 --    55 C    0.984   109 O    0.854
    57   1 O    0.938 --     1 N    0.886
    58   1 O    0.981 --     2 C    0.936
    59   1 O    0.931 --     5 N    0.898
    60   1 O    0.979 --     6 C    0.934
    61   1 O    0.976 --     8 C    0.933
    62   1 O    0.937 --    10 N    0.900
    63   1 O    0.986 --    11 C    0.948
    64   1 O    0.988 --    11 C    0.940
    65   1 O    0.978 --    14 C    0.933
    66   1 O    0.940 --    17 N    0.921
    67   1 O    0.933 --    17 N    0.907
    68   1 O    0.916 --    18 N    0.876
    69   1 O    0.988 --    19 C    0.949
    70   1 O    0.994 --    19 C    0.954
    71   1 O    0.994 --    21 C    0.942
    72   1 O    0.973 --    22 C    0.928
    73   1 O    0.989 --    24 C    0.963
    74   1 O    0.993 --    24 C    0.967
    75   1 O    0.994 --    24 C    0.969
    76   1 O    0.988 --    25 C    0.969
    77   1 O    0.996 --    25 C    0.978
    78   1 O    0.992 --    25 C    0.970
    79   1 O    0.939 --    26 N    0.884
    80   1 O    0.984 --    27 C    0.950
    81   1 O    0.988 --    27 C    0.953
    82   1 O    0.990 --    29 C    0.950
    83   1 O    0.989 --    29 C    0.952
    84   1 O    0.971 --    30 C    0.927
    85   1 O    0.931 --    33 N    0.891
    86   1 O    0.990 --    34 C    0.942
    87   1 O    0.935 --    36 N    0.906
    88   1 O    0.939 --    36 N    0.908
    89   1 O    0.883 --    38 C    0.871
    90   1 O    0.990 --    39 C    0.974
    91   1 O    0.988 --    39 C    0.973
    92   1 O    0.990 --    39 C    0.973
    93   1 O    0.984 --    40 C    0.942
    94   1 O    0.938 --    42 N    0.899
    95   1 O    0.989 --    43 C    0.959
    96   1 O    0.987 --    43 C    0.955
    97   1 O    0.984 --    45 C    0.939
    98   1 O    0.987 --    45 C    0.951
    99   1 O    0.927 --    49 N    0.895
   100   1 O    0.930 --    49 N    0.906
   101   1 O    0.985 --    50 C    0.947
   102   1 O    0.982 --    50 C    0.934
   103   1 O    0.984 --    51 C    0.941
   104   1 O    0.995 --    51 C    0.960
   105   1 O    0.939 --    54 N    0.913
   106   1 O    0.925 --    54 N    0.901
   107   1 O    0.992 --    55 C    0.946
   108   1 O    0.993 --    55 C    0.954
   109   1 O    0.872 --    56 C    0.854
 ---------------------------------------------------------------------------

Topologies differ in total number of bonds
Writing topology from bond orders to xtbtopo.mol

Atomic dipole moments (in atomic units):
---------------------------------------------------------
     #    Z                 x            y            z
---------------------------------------------------------
           total     0.165345    -2.132160     3.743233
---------------------------------------------------------
         |total|     4.311061    10.957623 Debye


           -------------------------------------------------
          | TOTAL ENERGY            -2831.652364364058 Eh   |
          | GRADIENT NORM               0.491359508752 Eh/α |
           -------------------------------------------------

------------------------------------------------------------------------
 * finished run on 2026/05/23 at 12:30:52.749     
------------------------------------------------------------------------
 total:
 * wall-time:     0 d,  0 h,  0 min, 15.628 sec
 *  cpu-time:     0 d,  0 h,  0 min, 30.565 sec
 * ratio c/w:     1.956 speedup
 SCF:
 * wall-time:     0 d,  0 h,  0 min, 15.125 sec
 *  cpu-time:     0 d,  0 h,  0 min, 30.075 sec
 * ratio c/w:     1.988 speedup

normal termination of xtb
