      -----------------------------------------------------------      
     |                   =====================                   |     
     |                           x T B                           |     
     |                   =====================                   |     
     |                         S. Grimme                         |     
     |          Mulliken Center for Theoretical Chemistry        |     
     |                    University of Bonn                     |     
      -----------------------------------------------------------      

   * xtb version 6.7.1 (edcfbbe) compiled by 'albert@albert-system' on 2024-07-22

   xtb is free software: you can redistribute it and/or modify it under
   the terms of the GNU Lesser General Public License as published by
   the Free Software Foundation, either version 3 of the License, or
   (at your option) any later version.
   
   xtb is distributed in the hope that it will be useful,
   but WITHOUT ANY WARRANTY; without even the implied warranty of
   MERCHANTABILITY or FITNESS FOR A PARTICULAR PURPOSE.  See the
   GNU Lesser General Public License for more details.
   
   Cite this work as:
   * C. Bannwarth, E. Caldeweyher, S. Ehlert, A. Hansen, P. Pracht,
     J. Seibert, S. Spicher, S. Grimme, WIREs Comput. Mol. Sci., 2020, 11,
     e01493. DOI: 10.1002/wcms.1493
   
   for GFN2-xTB:
   * C. Bannwarth, S. Ehlert and S. Grimme., J. Chem. Theory Comput., 2019,
     15, 1652-1671. DOI: 10.1021/acs.jctc.8b01176
   for GFN1-xTB:
   * S. Grimme, C. Bannwarth, P. Shushkov, J. Chem. Theory Comput., 2017,
     13, 1989-2009. DOI: 10.1021/acs.jctc.7b00118
   for GFN0-xTB:
   * P. Pracht, E. Caldeweyher, S. Ehlert, S. Grimme, ChemRxiv, 2019, preprint.
     DOI: 10.26434/chemrxiv.8326202.v1
   for GFN-FF:
   * S. Spicher and S. Grimme, Angew. Chem. Int. Ed., 2020, 59, 15665-15673.
     DOI: 10.1002/anie.202004239
   
   for ALPB and GBSA implicit solvation:
   * S. Ehlert, M. Stahn, S. Spicher, S. Grimme, J. Chem. Theory Comput.,
     2021, 17, 4250-4261. DOI: 10.1021/acs.jctc.1c00471
   
   for ddCOSMO and CPCM-X implicit solvation:
   * M. Stahn, S. Ehlert, S. Grimme, J. Phys. Chem. A,
     2023, XX, XXXX-XXXX. DOI: 10.1021/acs.jpca.3c04382
   
   for DFT-D4:
   * E. Caldeweyher, C. Bannwarth and S. Grimme, J. Chem. Phys., 2017,
     147, 034112. DOI: 10.1063/1.4993215
   * E. Caldeweyher, S. Ehlert, A. Hansen, H. Neugebauer, S. Spicher,
     C. Bannwarth and S. Grimme, J. Chem. Phys., 2019, 150, 154122.
     DOI: 10.1063/1.5090222
   * E. Caldeweyher, J.-M. Mewes, S. Ehlert and S. Grimme, Phys. Chem. Chem. Phys.
     2020, 22, 8499-8512. DOI: 10.1039/D0CP00502A
   
   for sTDA-xTB:
   * S. Grimme and C. Bannwarth, J. Chem. Phys., 2016, 145, 054103.
     DOI: 10.1063/1.4959605
   
   in the mass-spec context:
   * V. Asgeirsson, C. Bauer and S. Grimme, Chem. Sci., 2017, 8, 4879.
     DOI: 10.1039/c7sc00601b
   * J. Koopman and S. Grimme, ACS Omega 2019, 4, 12, 15120-15133.
     DOI: 10.1021/acsomega.9b02011
   
   for metadynamics refer to:
   * S. Grimme, J. Chem. Theory Comput., 2019, 155, 2847-2862
     DOI: 10.1021/acs.jctc.9b00143
   
   for SPH calculations refer to:
   * S. Spicher and S. Grimme, J. Chem. Theory Comput., 2021, 17, 1701-1714
     DOI: 10.1021/acs.jctc.0c01306
   
   for ONIOM refer to:
   * C. Plett, A. Katbashev, S. Ehlert, S. Grimme, M. Bursch,
     Phys. Chem. Chem. Phys., 2023, 25, 17860-17868. DOI: 10.1039/D3CP02178E
   
   for DIPRO refer to:
   * J. Kohn, N. Gildemeister, S. Grimme, D. Fazzi, A. Hansen,
     J. Chem. Phys., 2023, just accepted.
   
   for PTB refer to:
   * S. Grimme, M. Mueller, A. Hansen, J. Chem. Phys., 2023, 158, 124111.
     DOI: 10.1063/5.0137838
   
   with help from (in alphabetical order)
   P. Atkinson, C. Bannwarth, F. Bohle, G. Brandenburg, E. Caldeweyher
   M. Checinski, S. Dohm, S. Ehlert, S. Ehrlich, I. Gerasimov, C. Hölzer
   A. Katbashev, J. Kohn, J. Koopman, C. Lavigne, S. Lehtola, F. März, M. Müller,
   F. Musil, H. Neugebauer, J. Pisarek, C. Plett, P. Pracht, F. Pultar,
   J. Seibert, P. Shushkov, S. Spicher, M. Stahn, M. Steiner, T. Strunk,
   J. Stückrath, T. Rose, and J. Unsleber
   
 * started run on 2026/05/23 at 12:34:48.297     
   ID    Z sym.   atoms
    1    7 N      1, 5, 10, 17, 18, 25, 30, 33
    2    6 C      2, 3, 6-8, 11-14, 19-23, 26-28, 31, 32, 34, 36-39
    3    8 O      4, 9, 15, 16, 24, 29, 35
    4    1 H      40-77

           -------------------------------------------------
          |                Calculation Setup                |
           -------------------------------------------------

          program call               : /home/xchen/software/xtb-6.7.1/xtb-dist/bin/xtb /home/xchen/Test/benchmark/md_sampled/05_5_0513_0/snap_0096.xyz --charge 0 --gfn 2 --norestart
          coordinate file            : /home/xchen/Test/benchmark/md_sampled/05_5_0513_0/snap_0096.xyz
          omp threads                :                    48


           -------------------------------------------------
          |                 G F N 2 - x T B                 |
           -------------------------------------------------

        Reference                      10.1021/acs.jctc.8b01176
      * Hamiltonian:
        H0-scaling (s, p, d)           1.850000    2.230000    2.230000
        zeta-weighting                 0.500000
      * Dispersion:
        s8                             2.700000
        a1                             0.520000
        a2                             5.000000
        s9                             5.000000
      * Repulsion:
        kExp                           1.500000    1.000000
        rExp                           1.000000
      * Coulomb:
        alpha                          2.000000
        third order                    shell-resolved
        anisotropic                    true
        a3                             3.000000
        a5                             4.000000
        cn-shift                       1.200000
        cn-exp                         4.000000
        max-rad                        5.000000


          ...................................................
          :                      SETUP                      :
          :.................................................:
          :  # basis functions                 194          :
          :  # atomic orbitals                 194          :
          :  # shells                          116          :
          :  # electrons                       216          :
          :  max. iterations                   250          :
          :  Hamiltonian                  GFN2-xTB          :
          :  restarted?                      false          :
          :  GBSA solvation                  false          :
          :  PC potential                    false          :
          :  electronic temp.          300.0000000     K    :
          :  accuracy                    1.0000000          :
          :  -> integral cutoff          0.2500000E+02      :
          :  -> integral neglect         0.1000000E-07      :
          :  -> SCF convergence          0.1000000E-05 Eh   :
          :  -> wf. convergence          0.1000000E-03 e    :
          :  Broyden damping             0.4000000          :
          :  net charge                          0          :
          :  unpaired electrons                  0          :
          ...................................................

 iter      E             dE          RMSdq      gap      omega  full diag
   1   -123.6823670 -0.123682E+03  0.410E+00    3.82       0.0  T
   2   -124.0265024 -0.344135E+00  0.224E+00    3.14       1.0  T
   3   -124.0430211 -0.165187E-01  0.125E+00    3.45       1.0  T
   4   -124.0419047  0.111633E-02  0.378E-01    3.06       1.0  T
   5   -124.0506661 -0.876134E-02  0.115E-01    3.18       1.0  T
   6   -124.0508838 -0.217681E-03  0.643E-02    3.19       1.0  T
   7   -124.0509754 -0.916003E-04  0.226E-02    3.18       1.0  T
   8   -124.0509807 -0.533417E-05  0.814E-03    3.19       1.4  T
   9   -124.0509818 -0.110896E-05  0.359E-03    3.19       3.2  T
  10   -124.0509819 -0.137874E-06  0.124E-03    3.19       9.2  T
  11   -124.0509820 -0.174513E-07  0.517E-04    3.19      22.0  T
  12   -124.0509820 -0.817015E-08  0.148E-04    3.19      76.9  T

   *** convergence criteria satisfied after 12 iterations ***

         #    Occupation            Energy/Eh            Energy/eV
      -------------------------------------------------------------
         1        2.0000           -0.7268157             -19.7777
       ...           ...                  ...                  ...
       102        2.0000           -0.4041235             -10.9968
       103        2.0000           -0.4029862             -10.9658
       104        2.0000           -0.3965739             -10.7913
       105        2.0000           -0.3956596             -10.7664
       106        2.0000           -0.3918115             -10.6617
       107        2.0000           -0.3889913             -10.5850
       108        2.0000           -0.3819979             -10.3947 (HOMO)
       109                         -0.2647435              -7.2040 (LUMO)
       110                         -0.2411548              -6.5622
       111                         -0.2328747              -6.3368
       112                         -0.2297204              -6.2510
       113                         -0.2286003              -6.2205
       ...                                ...                  ...
       194                          0.7311365              19.8952
      -------------------------------------------------------------
                  HL-Gap            0.1172544 Eh            3.1907 eV
             Fermi-level           -0.3233707 Eh           -8.7994 eV

 SCC (total)                   0 d,  0 h,  0 min, 11.871 sec
 SCC setup                      ...        0 min,  0.038 sec (  0.318%)
 Dispersion                     ...        0 min,  0.082 sec (  0.688%)
 classical contributions        ...        0 min,  0.009 sec (  0.074%)
 integral evaluation            ...        0 min,  0.360 sec (  3.030%)
 iterations                     ...        0 min, 10.551 sec ( 88.877%)
 molecular gradient             ...        0 min,  0.809 sec (  6.815%)
 printout                       ...        0 min,  0.023 sec (  0.198%)

         :::::::::::::::::::::::::::::::::::::::::::::::::::::
         ::                     SUMMARY                     ::
         :::::::::::::::::::::::::::::::::::::::::::::::::::::
         :: total energy            -122.582154078488 Eh    ::
         :: gradient norm              0.301148315475 Eh/a0 ::
         :: HOMO-LUMO gap              3.190655258486 eV    ::
         ::.................................................::
         :: SCC energy              -124.047993216095 Eh    ::
         :: -> isotropic ES            0.265299148530 Eh    ::
         :: -> anisotropic ES          0.006460944218 Eh    ::
         :: -> anisotropic XC          0.039001766681 Eh    ::
         :: -> dispersion             -0.091456635209 Eh    ::
         :: repulsion energy           1.465839137607 Eh    ::
         :: add. restraining           0.000000000000 Eh    ::
         :: total charge               0.000000000000 e     ::
         :::::::::::::::::::::::::::::::::::::::::::::::::::::

           -------------------------------------------------
          |                Property Printout                |
           -------------------------------------------------

    * Orbital Energies and Occupations

         #    Occupation            Energy/Eh            Energy/eV
      -------------------------------------------------------------
         1        2.0000           -0.7268157             -19.7777
       ...           ...                  ...                  ...
        96        2.0000           -0.4277896             -11.6407
        97        2.0000           -0.4257571             -11.5854
        98        2.0000           -0.4202128             -11.4346
        99        2.0000           -0.4172657             -11.3544
       100        2.0000           -0.4171257             -11.3506
       101        2.0000           -0.4045794             -11.0092
       102        2.0000           -0.4041235             -10.9968
       103        2.0000           -0.4029862             -10.9658
       104        2.0000           -0.3965739             -10.7913
       105        2.0000           -0.3956596             -10.7664
       106        2.0000           -0.3918115             -10.6617
       107        2.0000           -0.3889913             -10.5850
       108        2.0000           -0.3819979             -10.3947 (HOMO)
       109                         -0.2647435              -7.2040 (LUMO)
       110                         -0.2411548              -6.5622
       111                         -0.2328747              -6.3368
       112                         -0.2297204              -6.2510
       113                         -0.2286003              -6.2205
       114                         -0.2180200              -5.9326
       115                         -0.2116601              -5.7596
       116                         -0.1920562              -5.2261
       117                         -0.0943691              -2.5679
       118                         -0.0493667              -1.3433
       119                         -0.0361184              -0.9828
       ...                                ...                  ...
       194                          0.7311365              19.8952
      -------------------------------------------------------------
                  HL-Gap            0.1172544 Eh            3.1907 eV
             Fermi-level           -0.3233707 Eh           -8.7994 eV

     #   Z          covCN         q      C6AA      α(0)
     1   7 N        2.676    -0.234    26.127     7.591
     2   6 C        3.783     0.003    20.547     6.457
     3   6 C        2.758     0.290    22.083     7.695
     4   8 O        0.865    -0.401    21.700     6.246
     5   7 N        2.692    -0.210    25.572     7.510
     6   6 C        3.795     0.023    20.189     6.398
     7   6 C        2.748     0.267    22.492     7.766
     8   6 C        3.809     0.039    19.914     6.352
     9   8 O        0.858    -0.404    21.761     6.254
    10   7 N        2.701    -0.158    24.423     7.340
    11   6 C        3.825    -0.106    22.501     6.750
    12   6 C        2.753     0.266    22.509     7.769
    13   6 C        2.752     0.286    22.158     7.708
    14   6 C        3.787     0.007    20.480     6.446
    15   8 O        0.857    -0.457    22.849     6.409
    16   8 O        0.864    -0.467    23.057     6.438
    17   7 N        2.640    -0.254    26.613     7.662
    18   7 N        2.679    -0.227    25.972     7.569
    19   6 C        3.853    -0.011    20.728     6.475
    20   6 C        2.742     0.267    22.488     7.764
    21   6 C        3.756    -0.128    23.002     6.838
    22   6 C        3.755    -0.118    22.818     6.811
    23   6 C        3.784     0.018    20.289     6.416
    24   8 O        0.857    -0.398    21.639     6.237
    25   7 N        2.684    -0.157    24.400     7.336
    26   6 C        3.798    -0.078    21.985     6.676
    27   6 C        2.763     0.270    22.448     7.759
    28   6 C        3.137     0.056    26.523     8.429
    29   8 O        0.858    -0.464    22.998     6.430
    30   7 N        1.937    -0.277    28.035     7.851
    31   6 C        2.981    -0.036    28.893     8.817
    32   6 C        3.040     0.102    25.704     8.316
    33   7 N        2.841    -0.086    22.907     7.108
    34   6 C        3.672     0.076    19.535     6.335
    35   8 O        1.656    -0.430    21.438     6.250
    36   6 C        3.865    -0.015    20.800     6.486
    37   6 C        3.763    -0.126    22.952     6.829
    38   6 C        3.791    -0.049    21.469     6.599
    39   6 C        3.756    -0.109    22.637     6.784
    40   1 H        0.860     0.203     1.091     1.636
    41   1 H        0.927     0.089     1.891     2.150
    42   1 H        0.861     0.177     1.228     1.736
    43   1 H        0.928     0.062     2.172     2.305
    44   1 H        0.923     0.086     1.921     2.168
    45   1 H        0.861     0.190     1.158     1.685
    46   1 H        0.923     0.067     2.115     2.274
    47   1 H        0.920     0.066     2.131     2.283
    48   1 H        0.927     0.087     1.904     2.158
    49   1 H        0.855     0.206     1.076     1.625
    50   1 H        0.862     0.216     1.026     1.587
    51   1 H        0.859     0.217     1.022     1.584
    52   1 H        0.927     0.051     2.308     2.376
    53   1 H        0.921     0.048     2.344     2.394
    54   1 H        0.929     0.054     2.275     2.358
    55   1 H        0.925     0.038     2.473     2.459
    56   1 H        0.926     0.040     2.452     2.449
    57   1 H        0.923     0.063     2.168     2.303
    58   1 H        0.923     0.049     2.336     2.390
    59   1 H        0.925     0.068     2.108     2.270
    60   1 H        0.857     0.180     1.212     1.725
    61   1 H        0.924     0.050     2.315     2.380
    62   1 H        0.926     0.077     2.009     2.216
    63   1 H        0.928     0.044     2.395     2.420
    64   1 H        0.917     0.031     2.574     2.509
    65   1 H        0.861     0.162     1.325     1.803
    66   1 H        0.926     0.039     2.461     2.453
    67   1 H        0.916     0.055     2.259     2.351
    68   1 H        0.805     0.310     0.693     1.307
    69   1 H        0.927     0.054     2.275     2.359
    70   1 H        0.927     0.047     2.363     2.404
    71   1 H        0.927     0.073     2.051     2.240
    72   1 H        0.921     0.053     2.285     2.364
    73   1 H        0.912     0.031     2.577     2.511
    74   1 H        0.915     0.037     2.487     2.467
    75   1 H        0.925     0.033     2.546     2.495
    76   1 H        0.928     0.051     2.305     2.374
    77   1 H        0.923     0.025     2.660     2.551

 Mol. C6AA /au·bohr⁶  :      57194.575947
 Mol. C8AA /au·bohr⁸  :    1274596.306797
 Mol. α(0) /au        :        358.027582


Wiberg/Mayer (AO) data.
largest (>0.10) Wiberg bond orders for each atom

 ---------------------------------------------------------------------------
     #   Z sym  total        # sym  WBO       # sym  WBO       # sym  WBO
 ---------------------------------------------------------------------------
     1   7 N    3.318 --     7 C    1.181     2 C    0.964    40 H    0.906
                             9 O    0.179
     2   6 C    3.964 --     3 C    0.975     1 N    0.964    41 H    0.946
                            34 C    0.940
     3   6 C    3.954 --     4 O    1.724     5 N    1.188     2 C    0.975
     4   8 O    2.048 --     3 C    1.724     5 N    0.176
     5   7 N    3.358 --     3 C    1.188     6 C    0.965    42 H    0.935
                             4 O    0.176
     6   6 C    3.966 --    27 C    0.973     5 N    0.965    43 H    0.957
                            36 C    0.932
     7   6 C    3.943 --     9 O    1.745     1 N    1.181     8 C    0.946
     8   6 C    3.972 --    10 N    0.987    11 C    0.976     7 C    0.946
                            44 H    0.938
     9   8 O    2.032 --     7 C    1.745     1 N    0.179
    10   7 N    3.462 --    12 C    1.272     8 C    0.987    45 H    0.922
                            15 O    0.191
    11   6 C    3.992 --     8 C    0.976    13 C    0.960    46 H    0.957
                            47 H    0.954
    12   6 C    3.946 --    15 O    1.649    10 N    1.272    14 C    0.937
    13   6 C    3.955 --    16 O    1.656    17 N    1.310    11 C    0.960
    14   6 C    3.963 --    18 N    0.981    19 C    0.956    48 H    0.953
                            12 C    0.937
    15   8 O    1.971 --    12 C    1.649    10 N    0.191
    16   8 O    1.953 --    13 C    1.656    17 N    0.187
    17   7 N    3.384 --    13 C    1.310    50 H    0.930    49 H    0.924
                            16 O    0.187
    18   7 N    3.384 --    20 C    1.221    14 C    0.981    51 H    0.885
                            24 O    0.199
    19   6 C    3.991 --    22 C    1.016    21 C    1.005    52 H    0.964
                            14 C    0.956
    20   6 C    3.950 --    24 O    1.742    18 N    1.221    23 C    0.913
    21   6 C    3.985 --    19 C    1.005    55 H    0.981    54 H    0.980
                            53 H    0.979
    22   6 C    3.982 --    19 C    1.016    56 H    0.981    58 H    0.979
                            57 H    0.978
    23   6 C    3.959 --    25 N    0.998    59 H    0.966    26 C    0.946
                            20 C    0.913
    24   8 O    2.056 --    20 C    1.742    18 N    0.199
    25   7 N    3.472 --    27 C    1.267    23 C    0.998    60 H    0.934
                            29 O    0.186
    26   6 C    3.987 --    28 C    1.025    61 H    0.970    62 H    0.957
                            23 C    0.946
    27   6 C    3.949 --    29 O    1.618    25 N    1.267     6 C    0.973
    28   6 C    3.973 --    31 C    1.560    30 N    1.258    26 C    1.025
    29   8 O    1.987 --    27 C    1.618    25 N    0.186
    30   7 N    3.015 --    32 C    1.552    28 C    1.258    33 N    0.106
    31   6 C    3.924 --    28 C    1.560    33 N    1.183    63 H    0.972
                            32 C    0.117
    32   6 C    3.953 --    30 N    1.552    33 N    1.280    64 H    0.955
                            31 C    0.117
    33   7 N    3.589 --    32 C    1.280    31 C    1.183    65 H    0.944
                            30 N    0.106
    34   6 C    3.960 --    35 O    1.025    66 H    0.970    67 H    0.967
                             2 C    0.940
    35   8 O    1.971 --    34 C    1.025    68 H    0.877
    36   6 C    3.984 --    38 C    1.007    37 C    1.005    69 H    0.957
                             6 C    0.932
    37   6 C    3.987 --    36 C    1.005    70 H    0.983    72 H    0.976
                            71 H    0.972
    38   6 C    3.992 --    39 C    1.017    36 C    1.007    74 H    0.971
                            73 H    0.966
    39   6 C    3.992 --    38 C    1.017    75 H    0.986    77 H    0.985
                            76 H    0.982
    40   1 H    0.959 --     1 N    0.906
    41   1 H    0.992 --     2 C    0.946
    42   1 H    0.968 --     5 N    0.935
    43   1 H    0.996 --     6 C    0.957
    44   1 H    0.992 --     8 C    0.938
    45   1 H    0.964 --    10 N    0.922
    46   1 H    0.995 --    11 C    0.957
    47   1 H    0.996 --    11 C    0.954
    48   1 H    0.992 --    14 C    0.953
    49   1 H    0.957 --    17 N    0.924
    50   1 H    0.953 --    17 N    0.930
    51   1 H    0.953 --    18 N    0.885
    52   1 H    0.997 --    19 C    0.964
    53   1 H    0.998 --    21 C    0.979
    54   1 H    0.997 --    21 C    0.980
    55   1 H    0.999 --    21 C    0.981
    56   1 H    0.998 --    22 C    0.981
    57   1 H    0.996 --    22 C    0.978
    58   1 H    0.997 --    22 C    0.979
    59   1 H    0.995 --    23 C    0.966
    60   1 H    0.967 --    25 N    0.934
    61   1 H    0.997 --    26 C    0.970
    62   1 H    0.994 --    26 C    0.957
    63   1 H    0.998 --    31 C    0.972
    64   1 H    0.999 --    32 C    0.955
    65   1 H    0.974 --    33 N    0.944
    66   1 H    0.998 --    34 C    0.970
    67   1 H    0.997 --    34 C    0.967
    68   1 H    0.904 --    35 O    0.877
    69   1 H    0.997 --    36 C    0.957
    70   1 H    0.997 --    37 C    0.983
    71   1 H    0.995 --    37 C    0.972
    72   1 H    0.997 --    37 C    0.976
    73   1 H    0.999 --    38 C    0.966
    74   1 H    0.999 --    38 C    0.971
    75   1 H    0.999 --    39 C    0.986
    76   1 H    0.997 --    39 C    0.982
    77   1 H    0.999 --    39 C    0.985
 ---------------------------------------------------------------------------

Topologies differ in total number of bonds
Writing topology from bond orders to xtbtopo.mol

molecular dipole:
                 x           y           z       tot (Debye)
 q only:       -2.112      -1.220      -1.501
   full:       -2.453      -1.843      -1.515       8.698
molecular quadrupole (traceless):
                xx          xy          yy          xz          yz          zz
 q only:       23.370      17.759     -20.198     -15.097      -2.385      -3.172
  q+dip:       30.662      31.031     -25.033     -15.242      -5.237      -5.628
   full:       31.037      30.621     -25.849     -15.492      -5.843      -5.188


           -------------------------------------------------
          | TOTAL ENERGY             -122.582154078488 Eh   |
          | GRADIENT NORM               0.301148315475 Eh/α |
          | HOMO-LUMO GAP               3.190655258486 eV   |
           -------------------------------------------------

------------------------------------------------------------------------
 * finished run on 2026/05/23 at 12:35:00.880     
------------------------------------------------------------------------
 total:
 * wall-time:     0 d,  0 h,  0 min, 12.582 sec
 *  cpu-time:     0 d,  0 h,  0 min, 15.329 sec
 * ratio c/w:     1.218 speedup
 SCF:
 * wall-time:     0 d,  0 h,  0 min, 11.872 sec
 *  cpu-time:     0 d,  0 h,  0 min, 14.602 sec
 * ratio c/w:     1.230 speedup

normal termination of xtb
