      -----------------------------------------------------------      
     |                   =====================                   |     
     |                           x T B                           |     
     |                   =====================                   |     
     |                         S. Grimme                         |     
     |          Mulliken Center for Theoretical Chemistry        |     
     |                    University of Bonn                     |     
      -----------------------------------------------------------      

   * xtb version 6.7.1 (edcfbbe) compiled by 'albert@albert-system' on 2024-07-22

   xtb is free software: you can redistribute it and/or modify it under
   the terms of the GNU Lesser General Public License as published by
   the Free Software Foundation, either version 3 of the License, or
   (at your option) any later version.
   
   xtb is distributed in the hope that it will be useful,
   but WITHOUT ANY WARRANTY; without even the implied warranty of
   MERCHANTABILITY or FITNESS FOR A PARTICULAR PURPOSE.  See the
   GNU Lesser General Public License for more details.
   
   Cite this work as:
   * C. Bannwarth, E. Caldeweyher, S. Ehlert, A. Hansen, P. Pracht,
     J. Seibert, S. Spicher, S. Grimme, WIREs Comput. Mol. Sci., 2020, 11,
     e01493. DOI: 10.1002/wcms.1493
   
   for GFN2-xTB:
   * C. Bannwarth, S. Ehlert and S. Grimme., J. Chem. Theory Comput., 2019,
     15, 1652-1671. DOI: 10.1021/acs.jctc.8b01176
   for GFN1-xTB:
   * S. Grimme, C. Bannwarth, P. Shushkov, J. Chem. Theory Comput., 2017,
     13, 1989-2009. DOI: 10.1021/acs.jctc.7b00118
   for GFN0-xTB:
   * P. Pracht, E. Caldeweyher, S. Ehlert, S. Grimme, ChemRxiv, 2019, preprint.
     DOI: 10.26434/chemrxiv.8326202.v1
   for GFN-FF:
   * S. Spicher and S. Grimme, Angew. Chem. Int. Ed., 2020, 59, 15665-15673.
     DOI: 10.1002/anie.202004239
   
   for ALPB and GBSA implicit solvation:
   * S. Ehlert, M. Stahn, S. Spicher, S. Grimme, J. Chem. Theory Comput.,
     2021, 17, 4250-4261. DOI: 10.1021/acs.jctc.1c00471
   
   for ddCOSMO and CPCM-X implicit solvation:
   * M. Stahn, S. Ehlert, S. Grimme, J. Phys. Chem. A,
     2023, XX, XXXX-XXXX. DOI: 10.1021/acs.jpca.3c04382
   
   for DFT-D4:
   * E. Caldeweyher, C. Bannwarth and S. Grimme, J. Chem. Phys., 2017,
     147, 034112. DOI: 10.1063/1.4993215
   * E. Caldeweyher, S. Ehlert, A. Hansen, H. Neugebauer, S. Spicher,
     C. Bannwarth and S. Grimme, J. Chem. Phys., 2019, 150, 154122.
     DOI: 10.1063/1.5090222
   * E. Caldeweyher, J.-M. Mewes, S. Ehlert and S. Grimme, Phys. Chem. Chem. Phys.
     2020, 22, 8499-8512. DOI: 10.1039/D0CP00502A
   
   for sTDA-xTB:
   * S. Grimme and C. Bannwarth, J. Chem. Phys., 2016, 145, 054103.
     DOI: 10.1063/1.4959605
   
   in the mass-spec context:
   * V. Asgeirsson, C. Bauer and S. Grimme, Chem. Sci., 2017, 8, 4879.
     DOI: 10.1039/c7sc00601b
   * J. Koopman and S. Grimme, ACS Omega 2019, 4, 12, 15120-15133.
     DOI: 10.1021/acsomega.9b02011
   
   for metadynamics refer to:
   * S. Grimme, J. Chem. Theory Comput., 2019, 155, 2847-2862
     DOI: 10.1021/acs.jctc.9b00143
   
   for SPH calculations refer to:
   * S. Spicher and S. Grimme, J. Chem. Theory Comput., 2021, 17, 1701-1714
     DOI: 10.1021/acs.jctc.0c01306
   
   for ONIOM refer to:
   * C. Plett, A. Katbashev, S. Ehlert, S. Grimme, M. Bursch,
     Phys. Chem. Chem. Phys., 2023, 25, 17860-17868. DOI: 10.1039/D3CP02178E
   
   for DIPRO refer to:
   * J. Kohn, N. Gildemeister, S. Grimme, D. Fazzi, A. Hansen,
     J. Chem. Phys., 2023, just accepted.
   
   for PTB refer to:
   * S. Grimme, M. Mueller, A. Hansen, J. Chem. Phys., 2023, 158, 124111.
     DOI: 10.1063/5.0137838
   
   with help from (in alphabetical order)
   P. Atkinson, C. Bannwarth, F. Bohle, G. Brandenburg, E. Caldeweyher
   M. Checinski, S. Dohm, S. Ehlert, S. Ehrlich, I. Gerasimov, C. Hölzer
   A. Katbashev, J. Kohn, J. Koopman, C. Lavigne, S. Lehtola, F. März, M. Müller,
   F. Musil, H. Neugebauer, J. Pisarek, C. Plett, P. Pracht, F. Pultar,
   J. Seibert, P. Shushkov, S. Spicher, M. Stahn, M. Steiner, T. Strunk,
   J. Stückrath, T. Rose, and J. Unsleber
   
 * started run on 2026/05/23 at 12:53:59.311     
   ID    Z sym.   atoms
    1    7 N      1, 5, 10, 18, 29, 37, 45, 48
    2    6 C      2, 3, 6-8, 11-14, 16, 17, 19-25, 27, 28, 30-33, 35, 36,
                  38-43, 46, 47, 49-56
    3    8 O      4, 9, 15, 26, 34, 44
    4    1 H      57-114

           -------------------------------------------------
          |                Calculation Setup                |
           -------------------------------------------------

          program call               : /home/xchen/software/xtb-6.7.1/xtb-dist/bin/xtb /home/xchen/Test/benchmark/md_sampled/10_6_0573_0/snap_0158.xyz --charge 0 --gfn 2 --norestart
          coordinate file            : /home/xchen/Test/benchmark/md_sampled/10_6_0573_0/snap_0158.xyz
          omp threads                :                    48


           -------------------------------------------------
          |                 G F N 2 - x T B                 |
           -------------------------------------------------

        Reference                      10.1021/acs.jctc.8b01176
      * Hamiltonian:
        H0-scaling (s, p, d)           1.850000    2.230000    2.230000
        zeta-weighting                 0.500000
      * Dispersion:
        s8                             2.700000
        a1                             0.520000
        a2                             5.000000
        s9                             5.000000
      * Repulsion:
        kExp                           1.500000    1.000000
        rExp                           1.000000
      * Coulomb:
        alpha                          2.000000
        third order                    shell-resolved
        anisotropic                    true
        a3                             3.000000
        a5                             4.000000
        cn-shift                       1.200000
        cn-exp                         4.000000
        max-rad                        5.000000


          ...................................................
          :                      SETUP                      :
          :.................................................:
          :  # basis functions                 282          :
          :  # atomic orbitals                 282          :
          :  # shells                          170          :
          :  # electrons                       302          :
          :  max. iterations                   250          :
          :  Hamiltonian                  GFN2-xTB          :
          :  restarted?                      false          :
          :  GBSA solvation                  false          :
          :  PC potential                    false          :
          :  electronic temp.          300.0000000     K    :
          :  accuracy                    1.0000000          :
          :  -> integral cutoff          0.2500000E+02      :
          :  -> integral neglect         0.1000000E-07      :
          :  -> SCF convergence          0.1000000E-05 Eh   :
          :  -> wf. convergence          0.1000000E-03 e    :
          :  Broyden damping             0.4000000          :
          :  net charge                          0          :
          :  unpaired electrons                  0          :
          ...................................................

 iter      E             dE          RMSdq      gap      omega  full diag
   1   -168.9182837 -0.168918E+03  0.385E+00    2.88       0.0  T
   2   -169.3665251 -0.448241E+00  0.221E+00    2.61       1.0  T
   3   -169.3984281 -0.319030E-01  0.122E+00    3.01       1.0  T
   4   -169.4006427 -0.221458E-02  0.332E-01    2.81       1.0  T
   5   -169.4117795 -0.111368E-01  0.116E-01    2.94       1.0  T
   6   -169.4123621 -0.582546E-03  0.631E-02    2.94       1.0  T
   7   -169.4125175 -0.155475E-03  0.276E-02    2.94       1.0  T
   8   -169.4125269 -0.937566E-05  0.126E-02    2.94       1.0  T
   9   -169.4125370 -0.100849E-04  0.446E-03    2.94       2.1  T
  10   -169.4125376 -0.603609E-06  0.202E-03    2.94       4.6  T
  11   -169.4125378 -0.150127E-06  0.877E-04    2.94      10.7  T
  12   -169.4125378 -0.260029E-07  0.338E-04    2.94      27.7  T

   *** convergence criteria satisfied after 12 iterations ***

         #    Occupation            Energy/Eh            Energy/eV
      -------------------------------------------------------------
         1        2.0000           -0.7409080             -20.1611
       ...           ...                  ...                  ...
       145        2.0000           -0.3957116             -10.7679
       146        2.0000           -0.3919305             -10.6650
       147        2.0000           -0.3902586             -10.6195
       148        2.0000           -0.3769301             -10.2568
       149        2.0000           -0.3754758             -10.2172
       150        2.0000           -0.3730704             -10.1518
       151        2.0000           -0.3675619             -10.0019 (HOMO)
       152                         -0.2596796              -7.0662 (LUMO)
       153                         -0.2570677              -6.9952
       154                         -0.2531190              -6.8877
       155                         -0.2453767              -6.6770
       156                         -0.2390964              -6.5061
       ...                                ...                  ...
       282                          0.7070788              19.2406
      -------------------------------------------------------------
                  HL-Gap            0.1078824 Eh            2.9356 eV
             Fermi-level           -0.3136207 Eh           -8.5341 eV

 SCC (total)                   0 d,  0 h,  0 min, 12.149 sec
 SCC setup                      ...        0 min,  0.047 sec (  0.388%)
 Dispersion                     ...        0 min,  0.159 sec (  1.307%)
 classical contributions        ...        0 min,  0.011 sec (  0.092%)
 integral evaluation            ...        0 min,  0.648 sec (  5.330%)
 iterations                     ...        0 min, 10.416 sec ( 85.736%)
 molecular gradient             ...        0 min,  0.855 sec (  7.038%)
 printout                       ...        0 min,  0.013 sec (  0.107%)

         :::::::::::::::::::::::::::::::::::::::::::::::::::::
         ::                     SUMMARY                     ::
         :::::::::::::::::::::::::::::::::::::::::::::::::::::
         :: total energy            -167.157738679294 Eh    ::
         :: gradient norm              0.433573357268 Eh/a0 ::
         :: HOMO-LUMO gap              2.935628997874 eV    ::
         ::.................................................::
         :: SCC energy              -169.405118180858 Eh    ::
         :: -> isotropic ES            0.247557028967 Eh    ::
         :: -> anisotropic ES          0.023612495222 Eh    ::
         :: -> anisotropic XC          0.077574934760 Eh    ::
         :: -> dispersion             -0.140432300801 Eh    ::
         :: repulsion energy           2.247379501565 Eh    ::
         :: add. restraining           0.000000000000 Eh    ::
         :: total charge              -0.000000000000 e     ::
         :::::::::::::::::::::::::::::::::::::::::::::::::::::

           -------------------------------------------------
          |                Property Printout                |
           -------------------------------------------------

    * Orbital Energies and Occupations

         #    Occupation            Energy/Eh            Energy/eV
      -------------------------------------------------------------
         1        2.0000           -0.7409080             -20.1611
       ...           ...                  ...                  ...
       139        2.0000           -0.4202977             -11.4369
       140        2.0000           -0.4136371             -11.2556
       141        2.0000           -0.4126521             -11.2288
       142        2.0000           -0.4040298             -10.9942
       143        2.0000           -0.4027092             -10.9583
       144        2.0000           -0.4024420             -10.9510
       145        2.0000           -0.3957116             -10.7679
       146        2.0000           -0.3919305             -10.6650
       147        2.0000           -0.3902586             -10.6195
       148        2.0000           -0.3769301             -10.2568
       149        2.0000           -0.3754758             -10.2172
       150        2.0000           -0.3730704             -10.1518
       151        2.0000           -0.3675619             -10.0019 (HOMO)
       152                         -0.2596796              -7.0662 (LUMO)
       153                         -0.2570677              -6.9952
       154                         -0.2531190              -6.8877
       155                         -0.2453767              -6.6770
       156                         -0.2390964              -6.5061
       157                         -0.2278901              -6.2012
       158                         -0.2268480              -6.1728
       159                         -0.2206813              -6.0050
       160                         -0.2127156              -5.7883
       161                         -0.2076040              -5.6492
       162                         -0.1967703              -5.3544
       ...                                ...                  ...
       282                          0.7070788              19.2406
      -------------------------------------------------------------
                  HL-Gap            0.1078824 Eh            2.9356 eV
             Fermi-level           -0.3136207 Eh           -8.5341 eV

     #   Z          covCN         q      C6AA      α(0)
     1   7 N        2.684    -0.217    25.721     7.532
     2   6 C        3.779     0.026    20.157     6.396
     3   6 C        2.752     0.258    22.647     7.793
     4   8 O        0.856    -0.406    21.803     6.260
     5   7 N        2.686    -0.172    24.729     7.386
     6   6 C        3.762     0.032    20.079     6.388
     7   6 C        2.756     0.263    22.560     7.778
     8   6 C        3.835     0.018    20.247     6.402
     9   8 O        0.863    -0.427    22.234     6.322
    10   7 N        2.700    -0.155    24.344     7.328
    11   6 C        3.810    -0.076    21.953     6.669
    12   6 C        2.770     0.267    22.492     7.767
    13   6 C        2.975     0.004    27.936     8.670
    14   6 C        3.780     0.004    20.534     6.456
    15   8 O        0.860    -0.441    22.517     6.362
    16   6 C        2.907    -0.045    29.107     8.846
    17   6 C        2.899    -0.032    28.789     8.797
    18   7 N        2.698    -0.206    25.487     7.498
    19   6 C        3.785    -0.061    21.693     6.634
    20   6 C        2.919    -0.029    28.714     8.787
    21   6 C        2.935    -0.028    28.701     8.786
    22   6 C        2.764     0.272    22.402     7.751
    23   6 C        3.829    -0.010    20.736     6.479
    24   6 C        2.919    -0.030    28.745     8.792
    25   6 C        3.818     0.015    20.315     6.415
    26   8 O        0.859    -0.409    21.853     6.268
    27   6 C        3.747    -0.111    22.695     6.795
    28   6 C        3.748    -0.120    22.870     6.821
    29   7 N        2.702    -0.185    25.013     7.428
    30   6 C        3.816    -0.076    21.930     6.665
    31   6 C        2.763     0.267    22.496     7.767
    32   6 C        2.964     0.024    27.458     8.595
    33   6 C        3.787     0.026    20.158     6.395
    34   8 O        0.863    -0.414    21.968     6.284
    35   6 C        2.925    -0.050    29.239     8.868
    36   6 C        2.951    -0.035    28.881     8.814
    37   7 N        2.691    -0.190    25.119     7.444
    38   6 C        3.778    -0.064    21.757     6.645
    39   6 C        2.900    -0.044    29.081     8.842
    40   6 C        2.899    -0.018    28.467     8.748
    41   6 C        2.737     0.252    22.756     7.810
    42   6 C        3.159     0.062    26.308     8.385
    43   6 C        2.915    -0.021    28.528     8.758
    44   8 O        0.858    -0.413    21.933     6.279
    45   7 N        1.866    -0.277    28.047     7.850
    46   6 C        2.972    -0.030    28.748     8.795
    47   6 C        3.093     0.097    25.752     8.317
    48   7 N        2.781    -0.110    23.409     7.186
    49   6 C        3.828    -0.019    20.885     6.503
    50   6 C        3.740    -0.117    22.826     6.817
    51   6 C        3.800    -0.061    21.668     6.628
    52   6 C        3.690    -0.098    22.567     6.798
    53   6 C        3.833    -0.031    21.103     6.536
    54   6 C        3.746    -0.113    22.736     6.801
    55   6 C        3.804    -0.059    21.640     6.623
    56   6 C        3.742    -0.104    22.572     6.778
    57   1 H        0.858     0.174     1.250     1.751
    58   1 H        0.921     0.071     2.075     2.253
    59   1 H        0.860     0.177     1.234     1.740
    60   1 H        0.913     0.068     2.104     2.269
    61   1 H        0.924     0.096     1.818     2.108
    62   1 H        0.861     0.197     1.123     1.660
    63   1 H        0.928     0.048     2.343     2.394
    64   1 H        0.926     0.053     2.278     2.360
    65   1 H        0.927     0.094     1.836     2.119
    66   1 H        0.918     0.023     2.685     2.563
    67   1 H        0.922     0.043     2.405     2.425
    68   1 H        0.862     0.183     1.197     1.714
    69   1 H        0.921     0.029     2.597     2.520
    70   1 H        0.912     0.057     2.232     2.337
    71   1 H        0.925     0.034     2.527     2.486
    72   1 H        0.927     0.042     2.421     2.433
    73   1 H        0.917     0.022     2.706     2.573
    74   1 H        0.929     0.046     2.369     2.407
    75   1 H        0.925     0.101     1.776     2.084
    76   1 H        0.920     0.057     2.240     2.341
    77   1 H        0.926     0.048     2.342     2.393
    78   1 H        0.924     0.039     2.465     2.455
    79   1 H        0.928     0.047     2.356     2.400
    80   1 H        0.924     0.030     2.585     2.514
    81   1 H        0.927     0.041     2.436     2.441
    82   1 H        0.861     0.169     1.282     1.773
    83   1 H        0.922     0.046     2.374     2.410
    84   1 H        0.919     0.021     2.715     2.577
    85   1 H        0.928     0.090     1.875     2.141
    86   1 H        0.923     0.026     2.640     2.541
    87   1 H        0.923     0.035     2.510     2.478
    88   1 H        0.861     0.190     1.156     1.684
    89   1 H        0.906     0.088     1.903     2.158
    90   1 H        0.916     0.031     2.581     2.513
    91   1 H        0.915     0.024     2.673     2.557
    92   1 H        0.917     0.034     2.536     2.491
    93   1 H        0.925     0.040     2.442     2.444
    94   1 H        0.925     0.063     2.162     2.300
    95   1 H        0.928     0.036     2.501     2.473
    96   1 H        0.861     0.162     1.320     1.800
    97   1 H        0.913     0.029     2.596     2.520
    98   1 H        0.914     0.042     2.430     2.438
    99   1 H        0.927     0.063     2.165     2.301
   100   1 H        0.927     0.048     2.346     2.395
   101   1 H        0.923     0.057     2.235     2.338
   102   1 H        0.926     0.046     2.367     2.406
   103   1 H        0.924     0.040     2.452     2.449
   104   1 H        0.867     0.019     2.758     2.601
   105   1 H        0.923     0.036     2.497     2.471
   106   1 H        0.920     0.059     2.208     2.324
   107   1 H        0.924     0.034     2.530     2.487
   108   1 H        0.921     0.043     2.411     2.428
   109   1 H        0.928     0.044     2.392     2.418
   110   1 H        0.926     0.043     2.415     2.430
   111   1 H        0.925     0.014     2.820     2.626
   112   1 H        0.920     0.033     2.539     2.492
   113   1 H        0.928     0.051     2.311     2.377
   114   1 H        0.918     0.037     2.495     2.470

 Mol. C6AA /au·bohr⁶  :     129255.429489
 Mol. C8AA /au·bohr⁸  :    2950285.203942
 Mol. α(0) /au        :        548.589194


Wiberg/Mayer (AO) data.
largest (>0.10) Wiberg bond orders for each atom

 ---------------------------------------------------------------------------
     #   Z sym  total        # sym  WBO       # sym  WBO       # sym  WBO
 ---------------------------------------------------------------------------
     1   7 N    3.349 --     7 C    1.195     2 C    0.968    57 H    0.928
                             9 O    0.173
     2   6 C    3.957 --     1 N    0.968     3 C    0.966    49 C    0.951
                            58 H    0.946
     3   6 C    3.952 --     4 O    1.714     5 N    1.176     2 C    0.966
     4   8 O    2.035 --     3 C    1.714     5 N    0.196
     5   7 N    3.444 --     3 C    1.176     6 C    1.064    59 H    0.923
                             4 O    0.196
     6   6 C    3.967 --     5 N    1.064    53 C    0.944    60 H    0.934
                            41 C    0.896
     7   6 C    3.946 --     9 O    1.709     1 N    1.195     8 C    0.951
     8   6 C    3.961 --    10 N    0.982    11 C    0.970     7 C    0.951
                            61 H    0.918
     9   8 O    2.017 --     7 C    1.709     1 N    0.173
    10   7 N    3.474 --    12 C    1.317     8 C    0.982    62 H    0.912
                            15 O    0.187
    11   6 C    3.987 --    13 C    0.991    63 H    0.973     8 C    0.970
                            64 H    0.964
    12   6 C    3.944 --    15 O    1.675    10 N    1.317    14 C    0.866
    13   6 C    3.984 --    16 C    1.479    17 C    1.366    11 C    0.991
                            24 C    0.101
    14   6 C    3.955 --    19 C    1.021    18 N    0.963    65 H    0.943
                            12 C    0.866
    15   8 O    2.015 --    12 C    1.675    10 N    0.187
    16   6 C    3.985 --    13 C    1.479    20 C    1.365    66 H    0.964
                            21 C    0.119
    17   6 C    3.988 --    21 C    1.498    13 C    1.366    67 H    0.966
                            20 C    0.111
    18   7 N    3.432 --    22 C    1.257    14 C    0.963    68 H    0.917
                            26 O    0.196
    19   6 C    3.990 --    14 C    1.021    23 C    0.974    69 H    0.972
                            70 H    0.962
    20   6 C    3.991 --    24 C    1.519    16 C    1.365    71 H    0.968
                            17 C    0.111
    21   6 C    3.991 --    17 C    1.498    24 C    1.372    72 H    0.971
                            16 C    0.119
    22   6 C    3.958 --    26 O    1.706    18 N    1.257    25 C    0.914
    23   6 C    3.988 --    27 C    1.020    28 C    0.997    19 C    0.974
                            73 H    0.969
    24   6 C    3.994 --    20 C    1.519    21 C    1.372    74 H    0.970
                            13 C    0.101
    25   6 C    3.958 --    30 C    0.985    29 N    0.981    75 H    0.934
                            22 C    0.914
    26   8 O    2.029 --    22 C    1.706    18 N    0.196
    27   6 C    3.990 --    23 C    1.020    78 H    0.983    76 H    0.982
                            77 H    0.980
    28   6 C    3.992 --    23 C    0.997    79 H    0.989    81 H    0.989
                            80 H    0.988
    29   7 N    3.401 --    31 C    1.198    25 C    0.981    82 H    0.939
                            34 O    0.175
    30   6 C    3.988 --    32 C    0.994    25 C    0.985    83 H    0.956
                            84 H    0.950
    31   6 C    3.947 --    34 O    1.705    29 N    1.198    33 C    0.968
    32   6 C    3.992 --    35 C    1.482    36 C    1.397    30 C    0.994
    33   6 C    3.964 --    37 N    0.997    31 C    0.968    85 H    0.948
                            38 C    0.935
    34   8 O    2.020 --    31 C    1.705    29 N    0.175
    35   6 C    3.984 --    32 C    1.482    39 C    1.345    86 H    0.966
                            40 C    0.124
    36   6 C    3.990 --    40 C    1.427    32 C    1.397    87 H    0.966
                            39 C    0.141
    37   7 N    3.391 --    41 C    1.215    33 C    0.997    88 H    0.921
                            44 O    0.177
    38   6 C    3.982 --    42 C    1.015    90 H    0.961    89 H    0.949
                            33 C    0.935
    39   6 C    3.978 --    43 C    1.479    35 C    1.345    91 H    0.974
                            36 C    0.141
    40   6 C    3.983 --    43 C    1.435    36 C    1.427    92 H    0.967
                            35 C    0.124
    41   6 C    3.937 --    44 O    1.715    37 N    1.215     6 C    0.896
    42   6 C    3.975 --    46 C    1.631    45 N    1.216    38 C    1.015
    43   6 C    3.989 --    39 C    1.479    40 C    1.435    93 H    0.968
    44   8 O    2.022 --    41 C    1.715    37 N    0.177
    45   7 N    2.995 --    47 C    1.561    42 C    1.216    48 N    0.123
    46   6 C    3.930 --    42 C    1.631    48 N    1.142    94 H    0.962
                            47 C    0.102
    47   6 C    3.961 --    45 N    1.561    48 N    1.289    95 H    0.965
                            46 C    0.102
    48   7 N    3.568 --    47 C    1.289    46 C    1.142    96 H    0.946
                            45 N    0.123
    49   6 C    3.983 --    50 C    1.006    51 C    0.996    97 H    0.962
                             2 C    0.951
    50   6 C    3.988 --    49 C    1.006   100 H    0.987    98 H    0.980
                            99 H    0.977
    51   6 C    3.991 --    52 C    1.012    49 C    0.996   102 H    0.979
                           101 H    0.973
    52   6 C    3.989 --    51 C    1.012   105 H    0.987   104 H    0.984
                           103 H    0.984
    53   6 C    3.983 --    54 C    0.999    55 C    0.996   106 H    0.970
                             6 C    0.944
    54   6 C    3.987 --    53 C    0.999   108 H    0.985   109 H    0.984
                           107 H    0.981
    55   6 C    3.995 --    56 C    1.017    53 C    0.996   111 H    0.976
                           110 H    0.971
    56   6 C    3.993 --    55 C    1.017   114 H    0.986   113 H    0.986
                           112 H    0.985
    57   1 H    0.970 --     1 N    0.928
    58   1 H    0.995 --     2 C    0.946
    59   1 H    0.969 --     5 N    0.923
    60   1 H    0.995 --     6 C    0.934
    61   1 H    0.990 --     8 C    0.918
    62   1 H    0.961 --    10 N    0.912
    63   1 H    0.997 --    11 C    0.973
    64   1 H    0.996 --    11 C    0.964
    65   1 H    0.991 --    14 C    0.943
    66   1 H    0.999 --    16 C    0.964
    67   1 H    0.998 --    17 C    0.966
    68   1 H    0.966 --    18 N    0.917
    69   1 H    0.999 --    19 C    0.972
    70   1 H    0.996 --    19 C    0.962
    71   1 H    0.999 --    20 C    0.968
    72   1 H    0.998 --    21 C    0.971
    73   1 H    1.000 --    23 C    0.969
    74   1 H    0.997 --    24 C    0.970
    75   1 H    0.989 --    25 C    0.934
    76   1 H    0.997 --    27 C    0.982
    77   1 H    0.997 --    27 C    0.980
    78   1 H    0.998 --    27 C    0.983
    79   1 H    0.997 --    28 C    0.989
    80   1 H    0.999 --    28 C    0.988
    81   1 H    0.998 --    28 C    0.989
    82   1 H    0.972 --    29 N    0.939
    83   1 H    0.997 --    30 C    0.956
    84   1 H    0.999 --    30 C    0.950
    85   1 H    0.992 --    33 C    0.948
    86   1 H    0.999 --    35 C    0.966
    87   1 H    0.999 --    36 C    0.966
    88   1 H    0.963 --    37 N    0.921
    89   1 H    0.992 --    38 C    0.949
    90   1 H    0.999 --    38 C    0.961
    91   1 H    0.999 --    39 C    0.974
    92   1 H    0.998 --    40 C    0.967
    93   1 H    0.997 --    43 C    0.968
    94   1 H    0.996 --    46 C    0.962
    95   1 H    0.998 --    47 C    0.965
    96   1 H    0.974 --    48 N    0.946
    97   1 H    0.999 --    49 C    0.962
    98   1 H    0.998 --    50 C    0.980
    99   1 H    0.996 --    50 C    0.977
   100   1 H    0.998 --    50 C    0.987
   101   1 H    0.997 --    51 C    0.973
   102   1 H    0.998 --    51 C    0.979
   103   1 H    0.998 --    52 C    0.984
   104   1 H    0.999 --    52 C    0.984
   105   1 H    0.999 --    52 C    0.987
   106   1 H    0.996 --    53 C    0.970
   107   1 H    0.999 --    54 C    0.981
   108   1 H    0.997 --    54 C    0.985
   109   1 H    0.998 --    54 C    0.984
   110   1 H    0.998 --    55 C    0.971
   111   1 H    1.000 --    55 C    0.976
   112   1 H    0.999 --    56 C    0.985
   113   1 H    0.997 --    56 C    0.986
   114   1 H    0.999 --    56 C    0.986
 ---------------------------------------------------------------------------

Topologies differ in total number of bonds
Writing topology from bond orders to xtbtopo.mol

molecular dipole:
                 x           y           z       tot (Debye)
 q only:       -1.725       1.378      -4.311
   full:       -1.993       2.035      -4.426      13.378
molecular quadrupole (traceless):
                xx          xy          yy          xz          yz          zz
 q only:       34.437      29.436      -6.113       1.495       5.912     -28.324
  q+dip:       49.098      31.613     -19.607       3.957       2.024     -29.491
   full:       48.158      35.336     -19.181       2.834       0.972     -28.977


           -------------------------------------------------
          | TOTAL ENERGY             -167.157738679294 Eh   |
          | GRADIENT NORM               0.433573357268 Eh/α |
          | HOMO-LUMO GAP               2.935628997874 eV   |
           -------------------------------------------------

------------------------------------------------------------------------
 * finished run on 2026/05/23 at 12:54:12.953     
------------------------------------------------------------------------
 total:
 * wall-time:     0 d,  0 h,  0 min, 13.641 sec
 *  cpu-time:     0 d,  0 h,  0 min, 22.777 sec
 * ratio c/w:     1.670 speedup
 SCF:
 * wall-time:     0 d,  0 h,  0 min, 12.151 sec
 *  cpu-time:     0 d,  0 h,  0 min, 21.296 sec
 * ratio c/w:     1.753 speedup

normal termination of xtb
