      -----------------------------------------------------------      
     |                   =====================                   |     
     |                           x T B                           |     
     |                   =====================                   |     
     |                         S. Grimme                         |     
     |          Mulliken Center for Theoretical Chemistry        |     
     |                    University of Bonn                     |     
      -----------------------------------------------------------      

   * xtb version 6.7.1 (edcfbbe) compiled by 'albert@albert-system' on 2024-07-22

   xtb is free software: you can redistribute it and/or modify it under
   the terms of the GNU Lesser General Public License as published by
   the Free Software Foundation, either version 3 of the License, or
   (at your option) any later version.
   
   xtb is distributed in the hope that it will be useful,
   but WITHOUT ANY WARRANTY; without even the implied warranty of
   MERCHANTABILITY or FITNESS FOR A PARTICULAR PURPOSE.  See the
   GNU Lesser General Public License for more details.
   
   Cite this work as:
   * C. Bannwarth, E. Caldeweyher, S. Ehlert, A. Hansen, P. Pracht,
     J. Seibert, S. Spicher, S. Grimme, WIREs Comput. Mol. Sci., 2020, 11,
     e01493. DOI: 10.1002/wcms.1493
   
   for GFN2-xTB:
   * C. Bannwarth, S. Ehlert and S. Grimme., J. Chem. Theory Comput., 2019,
     15, 1652-1671. DOI: 10.1021/acs.jctc.8b01176
   for GFN1-xTB:
   * S. Grimme, C. Bannwarth, P. Shushkov, J. Chem. Theory Comput., 2017,
     13, 1989-2009. DOI: 10.1021/acs.jctc.7b00118
   for GFN0-xTB:
   * P. Pracht, E. Caldeweyher, S. Ehlert, S. Grimme, ChemRxiv, 2019, preprint.
     DOI: 10.26434/chemrxiv.8326202.v1
   for GFN-FF:
   * S. Spicher and S. Grimme, Angew. Chem. Int. Ed., 2020, 59, 15665-15673.
     DOI: 10.1002/anie.202004239
   
   for ALPB and GBSA implicit solvation:
   * S. Ehlert, M. Stahn, S. Spicher, S. Grimme, J. Chem. Theory Comput.,
     2021, 17, 4250-4261. DOI: 10.1021/acs.jctc.1c00471
   
   for ddCOSMO and CPCM-X implicit solvation:
   * M. Stahn, S. Ehlert, S. Grimme, J. Phys. Chem. A,
     2023, XX, XXXX-XXXX. DOI: 10.1021/acs.jpca.3c04382
   
   for DFT-D4:
   * E. Caldeweyher, C. Bannwarth and S. Grimme, J. Chem. Phys., 2017,
     147, 034112. DOI: 10.1063/1.4993215
   * E. Caldeweyher, S. Ehlert, A. Hansen, H. Neugebauer, S. Spicher,
     C. Bannwarth and S. Grimme, J. Chem. Phys., 2019, 150, 154122.
     DOI: 10.1063/1.5090222
   * E. Caldeweyher, J.-M. Mewes, S. Ehlert and S. Grimme, Phys. Chem. Chem. Phys.
     2020, 22, 8499-8512. DOI: 10.1039/D0CP00502A
   
   for sTDA-xTB:
   * S. Grimme and C. Bannwarth, J. Chem. Phys., 2016, 145, 054103.
     DOI: 10.1063/1.4959605
   
   in the mass-spec context:
   * V. Asgeirsson, C. Bauer and S. Grimme, Chem. Sci., 2017, 8, 4879.
     DOI: 10.1039/c7sc00601b
   * J. Koopman and S. Grimme, ACS Omega 2019, 4, 12, 15120-15133.
     DOI: 10.1021/acsomega.9b02011
   
   for metadynamics refer to:
   * S. Grimme, J. Chem. Theory Comput., 2019, 155, 2847-2862
     DOI: 10.1021/acs.jctc.9b00143
   
   for SPH calculations refer to:
   * S. Spicher and S. Grimme, J. Chem. Theory Comput., 2021, 17, 1701-1714
     DOI: 10.1021/acs.jctc.0c01306
   
   for ONIOM refer to:
   * C. Plett, A. Katbashev, S. Ehlert, S. Grimme, M. Bursch,
     Phys. Chem. Chem. Phys., 2023, 25, 17860-17868. DOI: 10.1039/D3CP02178E
   
   for DIPRO refer to:
   * J. Kohn, N. Gildemeister, S. Grimme, D. Fazzi, A. Hansen,
     J. Chem. Phys., 2023, just accepted.
   
   for PTB refer to:
   * S. Grimme, M. Mueller, A. Hansen, J. Chem. Phys., 2023, 158, 124111.
     DOI: 10.1063/5.0137838
   
   with help from (in alphabetical order)
   P. Atkinson, C. Bannwarth, F. Bohle, G. Brandenburg, E. Caldeweyher
   M. Checinski, S. Dohm, S. Ehlert, S. Ehrlich, I. Gerasimov, C. Hölzer
   A. Katbashev, J. Kohn, J. Koopman, C. Lavigne, S. Lehtola, F. März, M. Müller,
   F. Musil, H. Neugebauer, J. Pisarek, C. Plett, P. Pracht, F. Pultar,
   J. Seibert, P. Shushkov, S. Spicher, M. Stahn, M. Steiner, T. Strunk,
   J. Stückrath, T. Rose, and J. Unsleber
   
 * started run on 2026/05/23 at 08:12:48.229     
   ID    Z sym.   atoms
    1    7 N      1, 5, 10, 17, 23, 28, 35
    2    6 C      2, 3, 6-8, 11-14, 16, 20, 21, 24-26, 29, 31-34, 36-40
    3    8 O      4, 9, 15, 18, 19, 22, 27, 30
    4    1 H      41-70

           -------------------------------------------------
          |                Calculation Setup                |
           -------------------------------------------------

          program call               : /home/xchen/software/xtb-6.7.1/xtb-dist/bin/xtb /home/xchen/Test/benchmark/md_sampled/01_6_0109_n1/snap_0009.xyz --charge -1 --gfn 2 --norestart
          coordinate file            : /home/xchen/Test/benchmark/md_sampled/01_6_0109_n1/snap_0009.xyz
          omp threads                :                    48


           -------------------------------------------------
          |                 G F N 2 - x T B                 |
           -------------------------------------------------

        Reference                      10.1021/acs.jctc.8b01176
      * Hamiltonian:
        H0-scaling (s, p, d)           1.850000    2.230000    2.230000
        zeta-weighting                 0.500000
      * Dispersion:
        s8                             2.700000
        a1                             0.520000
        a2                             5.000000
        s9                             5.000000
      * Repulsion:
        kExp                           1.500000    1.000000
        rExp                           1.000000
      * Coulomb:
        alpha                          2.000000
        third order                    shell-resolved
        anisotropic                    true
        a3                             3.000000
        a5                             4.000000
        cn-shift                       1.200000
        cn-exp                         4.000000
        max-rad                        5.000000


          ...................................................
          :                      SETUP                      :
          :.................................................:
          :  # basis functions                 190          :
          :  # atomic orbitals                 190          :
          :  # shells                          110          :
          :  # electrons                       214          :
          :  max. iterations                   250          :
          :  Hamiltonian                  GFN2-xTB          :
          :  restarted?                      false          :
          :  GBSA solvation                  false          :
          :  PC potential                    false          :
          :  electronic temp.          300.0000000     K    :
          :  accuracy                    1.0000000          :
          :  -> integral cutoff          0.2500000E+02      :
          :  -> integral neglect         0.1000000E-07      :
          :  -> SCF convergence          0.1000000E-05 Eh   :
          :  -> wf. convergence          0.1000000E-03 e    :
          :  Broyden damping             0.4000000          :
          :  net charge                         -1          :
          :  unpaired electrons                  0          :
          ...................................................

 iter      E             dE          RMSdq      gap      omega  full diag
   1   -123.0907721 -0.123091E+03  0.450E+00    3.29       0.0  T
   2   -123.4461455 -0.355373E+00  0.244E+00    2.10       1.0  T
   3   -123.4618095 -0.156641E-01  0.139E+00    0.60       1.0  T
   4   -120.4755570  0.298625E+01  0.395E+00    0.01       1.0  T
   5   -123.4612457 -0.298569E+01  0.533E-01    1.01       1.0  T
   6   -123.4780000 -0.167543E-01  0.153E-01    0.23       1.0  T
   7   -123.4781164 -0.116386E-03  0.108E-01    0.29       1.0  T
   8   -123.4780621  0.542669E-04  0.808E-02    0.31       1.0  T
   9   -123.4782546 -0.192538E-03  0.692E-02    0.28       1.0  T
  10   -123.4784770 -0.222414E-03  0.578E-02    0.25       1.0  T
  11   -123.4786265 -0.149465E-03  0.494E-02    0.23       1.0  T
  12   -123.4786761 -0.496205E-04  0.462E-02    0.23       1.0  T
  13   -123.4788969 -0.220789E-03  0.291E-02    0.20       1.0  T
  14   -123.4790356 -0.138726E-03  0.689E-03    0.18       1.7  T
  15   -123.4790376 -0.197314E-05  0.267E-03    0.18       4.5  T
  16   -123.4790368  0.847019E-06  0.396E-03    0.18       3.0  T
  17   -123.4790382 -0.139203E-05  0.829E-04    0.18      14.4  T
  18   -123.4790380  0.163602E-06  0.116E-03    0.18      10.3  T
  19   -123.4790383 -0.255772E-06  0.691E-05    0.18     173.0  T
  20   -123.4790383  0.310033E-08  0.134E-04    0.18      89.4  T

   *** convergence criteria satisfied after 20 iterations ***

         #    Occupation            Energy/Eh            Energy/eV
      -------------------------------------------------------------
         1        2.0000           -0.6542446             -17.8029
       ...           ...                  ...                  ...
       101        2.0000           -0.3089022              -8.4057
       102        2.0000           -0.2962973              -8.0627
       103        2.0000           -0.2959333              -8.0528
       104        2.0000           -0.2894561              -7.8765
       105        2.0000           -0.2062816              -5.6132
       106        1.9999           -0.1933336              -5.2609
       107        1.9403           -0.1874219              -5.1000 (HOMO)
       108        0.0598           -0.1808087              -4.9201 (LUMO)
       109        0.0000           -0.1702483              -4.6327
       110                         -0.1616243              -4.3980
       111                         -0.1570911              -4.2747
       112                         -0.1548285              -4.2131
       ...                                ...                  ...
       190                          0.8580084              23.3476
      -------------------------------------------------------------
                  HL-Gap            0.0066132 Eh            0.1800 eV
             Fermi-level           -0.1841143 Eh           -5.0100 eV

 SCC (total)                   0 d,  0 h,  0 min, 13.269 sec
 SCC setup                      ...        0 min,  0.033 sec (  0.251%)
 Dispersion                     ...        0 min,  0.076 sec (  0.570%)
 classical contributions        ...        0 min,  0.008 sec (  0.063%)
 integral evaluation            ...        0 min,  0.369 sec (  2.784%)
 iterations                     ...        0 min, 12.026 sec ( 90.633%)
 molecular gradient             ...        0 min,  0.750 sec (  5.652%)
 printout                       ...        0 min,  0.006 sec (  0.046%)

         :::::::::::::::::::::::::::::::::::::::::::::::::::::
         ::                     SUMMARY                     ::
         :::::::::::::::::::::::::::::::::::::::::::::::::::::
         :: total energy            -122.035558644821 Eh    ::
         :: gradient norm              0.320662452435 Eh/a0 ::
         :: HOMO-LUMO gap              0.179953899053 eV    ::
         ::.................................................::
         :: SCC energy              -123.477579517041 Eh    ::
         :: -> isotropic ES            0.407832968795 Eh    ::
         :: -> anisotropic ES          0.017776778870 Eh    ::
         :: -> anisotropic XC          0.030314322931 Eh    ::
         :: -> dispersion             -0.080488447399 Eh    ::
         :: repulsion energy           1.442020872220 Eh    ::
         :: add. restraining           0.000000000000 Eh    ::
         :: total charge              -0.999999999952 e     ::
         :::::::::::::::::::::::::::::::::::::::::::::::::::::

           -------------------------------------------------
          |                Property Printout                |
           -------------------------------------------------

    * Orbital Energies and Occupations

         #    Occupation            Energy/Eh            Energy/eV
      -------------------------------------------------------------
         1        2.0000           -0.6542446             -17.8029
       ...           ...                  ...                  ...
        95        2.0000           -0.3310215              -9.0076
        96        2.0000           -0.3295964              -8.9688
        97        2.0000           -0.3233947              -8.8000
        98        2.0000           -0.3183279              -8.6621
        99        2.0000           -0.3131725              -8.5219
       100        2.0000           -0.3115333              -8.4773
       101        2.0000           -0.3089022              -8.4057
       102        2.0000           -0.2962973              -8.0627
       103        2.0000           -0.2959333              -8.0528
       104        2.0000           -0.2894561              -7.8765
       105        2.0000           -0.2062816              -5.6132
       106        1.9999           -0.1933336              -5.2609
       107        1.9403           -0.1874219              -5.1000 (HOMO)
       108        0.0598           -0.1808087              -4.9201 (LUMO)
       109        0.0000           -0.1702483              -4.6327
       110                         -0.1616243              -4.3980
       111                         -0.1570911              -4.2747
       112                         -0.1548285              -4.2131
       113                         -0.1405152              -3.8236
       114                         -0.1325831              -3.6078
       115                         -0.1236494              -3.3647
       116                         -0.1223521              -3.3294
       117                         -0.0292048              -0.7947
       118                         -0.0206711              -0.5625
       ...                                ...                  ...
       190                          0.8580084              23.3476
      -------------------------------------------------------------
                  HL-Gap            0.0066132 Eh            0.1800 eV
             Fermi-level           -0.1841143 Eh           -5.0100 eV

     #   Z          covCN         q      C6AA      α(0)
     1   7 N        2.683    -0.188    25.072     7.437
     2   6 C        3.759    -0.028    21.122     6.552
     3   6 C        2.736     0.284    22.187     7.712
     4   8 O        0.862    -0.404    21.764     6.255
     5   7 N        2.683    -0.176    24.811     7.398
     6   6 C        3.756     0.004    20.556     6.464
     7   6 C        2.807     0.278    22.310     7.738
     8   6 C        3.808     0.031    20.053     6.375
     9   8 O        0.863    -0.431    22.299     6.331
    10   7 N        2.708    -0.199    25.330     7.475
    11   6 C        3.806    -0.045    21.368     6.581
    12   6 C        2.765     0.280    22.269     7.728
    13   6 C        3.800    -0.066    21.763     6.642
    14   6 C        3.742    -0.019    20.993     6.537
    15   8 O        0.862    -0.410    21.883     6.272
    16   6 C        2.689     0.337    21.265     7.547
    17   7 N        2.696    -0.168    24.633     7.371
    18   8 O        0.854    -0.598    26.083     6.847
    19   8 O        0.858    -0.573    25.456     6.765
    20   6 C        2.780     0.276    22.326     7.739
    21   6 C        3.830     0.039    19.893     6.346
    22   8 O        0.861    -0.416    21.995     6.288
    23   7 N        2.695    -0.170    24.682     7.379
    24   6 C        3.746    -0.112    22.714     6.798
    25   6 C        2.789     0.272    22.412     7.755
    26   6 C        3.782    -0.024    21.021     6.531
    27   8 O        0.857    -0.406    21.795     6.259
    28   7 N        2.686    -0.151    24.270     7.317
    29   6 C        2.774     0.275    22.358     7.744
    30   8 O        0.858    -0.428    22.245     6.324
    31   6 C        3.786    -0.067    21.799     6.650
    32   6 C        3.064    -0.033    28.750     8.793
    33   6 C        2.989    -0.011    28.276     8.723
    34   6 C        3.038    -0.012    28.284     8.723
    35   7 N        2.731    -0.131    23.839     7.252
    36   6 C        3.125     0.052    26.651     8.454
    37   6 C        2.922    -0.035    28.860     8.810
    38   6 C        2.927    -0.049    29.214     8.864
    39   6 C        2.922    -0.044    29.088     8.845
    40   6 C        2.891    -0.025    28.621     8.771
    41   1 H        0.861     0.174     1.247     1.750
    42   1 H        0.929     0.100     1.782     2.088
    43   1 H        0.920     0.035     2.520     2.483
    44   1 H        0.859     0.173     1.256     1.756
    45   1 H        0.923     0.064     2.157     2.297
    46   1 H        0.925     0.048     2.350     2.397
    47   1 H        0.859     0.193     1.145     1.676
    48   1 H        0.926     0.064     2.151     2.293
    49   1 H        0.919     0.059     2.208     2.324
    50   1 H        0.919     0.027     2.637     2.540
    51   1 H        0.920    -0.011     3.249     2.819
    52   1 H        0.922     0.065     2.140     2.288
    53   1 H        0.891     0.077     2.020     2.224
    54   1 H        0.860     0.172     1.260     1.759
    55   1 H        0.913     0.028     2.622     2.533
    56   1 H        0.860     0.176     1.234     1.740
    57   1 H        0.927     0.052     2.292     2.368
    58   1 H        0.920     0.051     2.309     2.376
    59   1 H        0.912     0.057     2.242     2.342
    60   1 H        0.928     0.068     2.105     2.269
    61   1 H        0.925     0.065     2.140     2.288
    62   1 H        0.860     0.212     1.047     1.603
    63   1 H        0.916     0.042     2.427     2.436
    64   1 H        0.927     0.065     2.137     2.286
    65   1 H        0.923     0.024     2.680     2.560
    66   1 H        0.859     0.153     1.379     1.839
    67   1 H        0.925     0.024     2.671     2.556
    68   1 H        0.920     0.006     2.961     2.691
    69   1 H        0.924     0.022     2.703     2.571
    70   1 H        0.902     0.005     2.978     2.700

 Mol. C6AA /au·bohr⁶  :      56362.891282
 Mol. C8AA /au·bohr⁸  :    1293306.860985
 Mol. α(0) /au        :        360.239466


Wiberg/Mayer (AO) data.
largest (>0.10) Wiberg bond orders for each atom

 ---------------------------------------------------------------------------
     #   Z sym  total        # sym  WBO       # sym  WBO       # sym  WBO
 ---------------------------------------------------------------------------
     1   7 N    3.378 --     7 C    1.219     2 C    0.985    41 H    0.938
                             9 O    0.172
     2   6 C    3.955 --     1 N    0.985    43 H    0.969    42 H    0.963
                             3 C    0.906
     3   6 C    3.949 --     4 O    1.721     5 N    1.263     2 C    0.906
     4   8 O    2.051 --     3 C    1.721     5 N    0.196
     5   7 N    3.441 --     3 C    1.263     6 C    0.970    44 H    0.942
                             4 O    0.196
     6   6 C    3.951 --    45 H    0.972     5 N    0.970    31 C    0.949
                            29 C    0.897
     7   6 C    3.950 --     9 O    1.688     1 N    1.219     8 C    0.978
     8   6 C    3.957 --     7 C    0.978    46 H    0.958    11 C    0.953
                            10 N    0.948
     9   8 O    1.987 --     7 C    1.688     1 N    0.172
    10   7 N    3.420 --    12 C    1.243     8 C    0.948    47 H    0.928
                            15 O    0.208
    11   6 C    3.981 --    13 C    1.001    48 H    0.972    49 H    0.969
                             8 C    0.953
    12   6 C    3.958 --    15 O    1.709    10 N    1.243    14 C    0.950
    13   6 C    3.963 --    11 C    1.001    50 H    0.974    51 H    0.973
                            16 C    0.918
    14   6 C    3.957 --    17 N    1.004    52 H    0.956    12 C    0.950
                            53 H    0.935
    15   8 O    2.034 --    12 C    1.709    10 N    0.208
    16   6 C    3.945 --    19 O    1.535    18 O    1.471    13 C    0.918
    17   7 N    3.446 --    20 C    1.240    14 C    1.004    54 H    0.934
                            22 O    0.201
    18   8 O    1.764 --    16 C    1.471    19 O    0.236
    19   8 O    1.832 --    16 C    1.535    18 O    0.236
    20   6 C    3.960 --    22 O    1.694    17 N    1.240    21 C    0.944
    21   6 C    3.969 --    24 C    0.992    23 N    0.984    55 H    0.947
                            20 C    0.944
    22   8 O    2.030 --    20 C    1.694    17 N    0.201
    23   7 N    3.429 --    25 C    1.247    21 C    0.984    56 H    0.935
                            27 O    0.192
    24   6 C    3.990 --    21 C    0.992    57 H    0.985    58 H    0.984
                            59 H    0.980
    25   6 C    3.950 --    27 O    1.722    23 N    1.247    26 C    0.918
    26   6 C    3.975 --    28 N    1.010    60 H    0.963    61 H    0.960
                            25 C    0.918
    27   8 O    2.041 --    25 C    1.722    23 N    0.192
    28   7 N    3.466 --    29 C    1.279    26 C    1.010    62 H    0.920
                            30 O    0.200
    29   6 C    3.948 --    30 O    1.704    28 N    1.279     6 C    0.897
    30   8 O    2.030 --    29 C    1.704    28 N    0.200
    31   6 C    3.987 --    32 C    1.032    64 H    0.966    63 H    0.963
                             6 C    0.949
    32   6 C    3.958 --    33 C    1.634    34 C    1.123    31 C    1.032
    33   6 C    3.925 --    32 C    1.634    35 N    1.153    65 H    0.968
    34   6 C    3.979 --    37 C    1.384    36 C    1.273    32 C    1.123
    35   7 N    3.479 --    33 C    1.153    36 C    1.148    66 H    0.946
    36   6 C    3.957 --    38 C    1.337    34 C    1.273    35 N    1.148
    37   6 C    3.963 --    39 C    1.449    34 C    1.384    67 H    0.968
    38   6 C    3.965 --    40 C    1.492    36 C    1.337    68 H    0.964
    39   6 C    3.981 --    37 C    1.449    40 C    1.387    69 H    0.973
    40   6 C    3.978 --    38 C    1.492    39 C    1.387    70 H    0.963
    41   1 H    0.970 --     1 N    0.938
    42   1 H    0.990 --     2 C    0.963
    43   1 H    0.999 --     2 C    0.969
    44   1 H    0.970 --     5 N    0.942
    45   1 H    0.996 --     6 C    0.972
    46   1 H    0.998 --     8 C    0.958
    47   1 H    0.963 --    10 N    0.928
    48   1 H    0.996 --    11 C    0.972
    49   1 H    0.996 --    11 C    0.969
    50   1 H    0.999 --    13 C    0.974
    51   1 H    0.999 --    13 C    0.973
    52   1 H    0.995 --    14 C    0.956
    53   1 H    0.994 --    14 C    0.935
    54   1 H    0.970 --    17 N    0.934
    55   1 H    0.999 --    21 C    0.947
    56   1 H    0.968 --    23 N    0.935
    57   1 H    0.997 --    24 C    0.985
    58   1 H    0.997 --    24 C    0.984
    59   1 H    0.997 --    24 C    0.980
    60   1 H    0.995 --    26 C    0.963
    61   1 H    0.996 --    26 C    0.960
    62   1 H    0.955 --    28 N    0.920
    63   1 H    0.998 --    31 C    0.963
    64   1 H    0.995 --    31 C    0.966
    65   1 H    0.998 --    33 C    0.968
    66   1 H    0.976 --    35 N    0.946
    67   1 H    0.999 --    37 C    0.968
    68   1 H    0.999 --    38 C    0.964
    69   1 H    0.999 --    39 C    0.973
    70   1 H    0.999 --    40 C    0.963
 ---------------------------------------------------------------------------

Topologies differ in total number of bonds
Writing topology from bond orders to xtbtopo.mol

molecular dipole:
                 x           y           z       tot (Debye)
 q only:        4.968      10.190       9.610
   full:        5.151      10.316      10.294      39.289
molecular quadrupole (traceless):
                xx          xy          yy          xz          yz          zz
 q only:       55.276     -93.260     -23.022     -87.158    -143.554     -32.254
  q+dip:       43.331     -97.353      -8.679     -92.344    -149.812     -34.652
   full:       46.011     -98.246     -10.452     -93.607    -148.039     -35.559


           -------------------------------------------------
          | TOTAL ENERGY             -122.035558644821 Eh   |
          | GRADIENT NORM               0.320662452435 Eh/α |
          | HOMO-LUMO GAP               0.179953899053 eV   |
           -------------------------------------------------

------------------------------------------------------------------------
 * finished run on 2026/05/23 at 08:13:01.859     
------------------------------------------------------------------------
 total:
 * wall-time:     0 d,  0 h,  0 min, 13.629 sec
 *  cpu-time:     0 d,  0 h,  0 min, 27.554 sec
 * ratio c/w:     2.022 speedup
 SCF:
 * wall-time:     0 d,  0 h,  0 min, 13.270 sec
 *  cpu-time:     0 d,  0 h,  0 min, 27.041 sec
 * ratio c/w:     2.038 speedup

normal termination of xtb
