      -----------------------------------------------------------      
     |                   =====================                   |     
     |                           x T B                           |     
     |                   =====================                   |     
     |                         S. Grimme                         |     
     |          Mulliken Center for Theoretical Chemistry        |     
     |                    University of Bonn                     |     
      -----------------------------------------------------------      

   * xtb version 6.7.1 (edcfbbe) compiled by 'albert@albert-system' on 2024-07-22

   xtb is free software: you can redistribute it and/or modify it under
   the terms of the GNU Lesser General Public License as published by
   the Free Software Foundation, either version 3 of the License, or
   (at your option) any later version.
   
   xtb is distributed in the hope that it will be useful,
   but WITHOUT ANY WARRANTY; without even the implied warranty of
   MERCHANTABILITY or FITNESS FOR A PARTICULAR PURPOSE.  See the
   GNU Lesser General Public License for more details.
   
   Cite this work as:
   * C. Bannwarth, E. Caldeweyher, S. Ehlert, A. Hansen, P. Pracht,
     J. Seibert, S. Spicher, S. Grimme, WIREs Comput. Mol. Sci., 2020, 11,
     e01493. DOI: 10.1002/wcms.1493
   
   for GFN2-xTB:
   * C. Bannwarth, S. Ehlert and S. Grimme., J. Chem. Theory Comput., 2019,
     15, 1652-1671. DOI: 10.1021/acs.jctc.8b01176
   for GFN1-xTB:
   * S. Grimme, C. Bannwarth, P. Shushkov, J. Chem. Theory Comput., 2017,
     13, 1989-2009. DOI: 10.1021/acs.jctc.7b00118
   for GFN0-xTB:
   * P. Pracht, E. Caldeweyher, S. Ehlert, S. Grimme, ChemRxiv, 2019, preprint.
     DOI: 10.26434/chemrxiv.8326202.v1
   for GFN-FF:
   * S. Spicher and S. Grimme, Angew. Chem. Int. Ed., 2020, 59, 15665-15673.
     DOI: 10.1002/anie.202004239
   
   for ALPB and GBSA implicit solvation:
   * S. Ehlert, M. Stahn, S. Spicher, S. Grimme, J. Chem. Theory Comput.,
     2021, 17, 4250-4261. DOI: 10.1021/acs.jctc.1c00471
   
   for ddCOSMO and CPCM-X implicit solvation:
   * M. Stahn, S. Ehlert, S. Grimme, J. Phys. Chem. A,
     2023, XX, XXXX-XXXX. DOI: 10.1021/acs.jpca.3c04382
   
   for DFT-D4:
   * E. Caldeweyher, C. Bannwarth and S. Grimme, J. Chem. Phys., 2017,
     147, 034112. DOI: 10.1063/1.4993215
   * E. Caldeweyher, S. Ehlert, A. Hansen, H. Neugebauer, S. Spicher,
     C. Bannwarth and S. Grimme, J. Chem. Phys., 2019, 150, 154122.
     DOI: 10.1063/1.5090222
   * E. Caldeweyher, J.-M. Mewes, S. Ehlert and S. Grimme, Phys. Chem. Chem. Phys.
     2020, 22, 8499-8512. DOI: 10.1039/D0CP00502A
   
   for sTDA-xTB:
   * S. Grimme and C. Bannwarth, J. Chem. Phys., 2016, 145, 054103.
     DOI: 10.1063/1.4959605
   
   in the mass-spec context:
   * V. Asgeirsson, C. Bauer and S. Grimme, Chem. Sci., 2017, 8, 4879.
     DOI: 10.1039/c7sc00601b
   * J. Koopman and S. Grimme, ACS Omega 2019, 4, 12, 15120-15133.
     DOI: 10.1021/acsomega.9b02011
   
   for metadynamics refer to:
   * S. Grimme, J. Chem. Theory Comput., 2019, 155, 2847-2862
     DOI: 10.1021/acs.jctc.9b00143
   
   for SPH calculations refer to:
   * S. Spicher and S. Grimme, J. Chem. Theory Comput., 2021, 17, 1701-1714
     DOI: 10.1021/acs.jctc.0c01306
   
   for ONIOM refer to:
   * C. Plett, A. Katbashev, S. Ehlert, S. Grimme, M. Bursch,
     Phys. Chem. Chem. Phys., 2023, 25, 17860-17868. DOI: 10.1039/D3CP02178E
   
   for DIPRO refer to:
   * J. Kohn, N. Gildemeister, S. Grimme, D. Fazzi, A. Hansen,
     J. Chem. Phys., 2023, just accepted.
   
   for PTB refer to:
   * S. Grimme, M. Mueller, A. Hansen, J. Chem. Phys., 2023, 158, 124111.
     DOI: 10.1063/5.0137838
   
   with help from (in alphabetical order)
   P. Atkinson, C. Bannwarth, F. Bohle, G. Brandenburg, E. Caldeweyher
   M. Checinski, S. Dohm, S. Ehlert, S. Ehrlich, I. Gerasimov, C. Hölzer
   A. Katbashev, J. Kohn, J. Koopman, C. Lavigne, S. Lehtola, F. März, M. Müller,
   F. Musil, H. Neugebauer, J. Pisarek, C. Plett, P. Pracht, F. Pultar,
   J. Seibert, P. Shushkov, S. Spicher, M. Stahn, M. Steiner, T. Strunk,
   J. Stückrath, T. Rose, and J. Unsleber
   
 * started run on 2026/05/23 at 08:15:15.766     
   ID    Z sym.   atoms
    1    7 N      1, 5, 10, 16, 18, 21, 27, 34, 42, 50
    2    6 C      2, 3, 6-8, 11-14, 17, 19, 20, 22-25, 28-31, 35-38, 40, 43,
                  44, 46-48
    3    8 O      4, 9, 15, 26, 32, 39, 41, 49
    4   16 S      33, 45
    5    1 H      51-96

           -------------------------------------------------
          |                Calculation Setup                |
           -------------------------------------------------

          program call               : /home/xchen/software/xtb-6.7.1/xtb-dist/bin/xtb /home/xchen/Test/benchmark/md_sampled/02_6_0901_0/snap_0058.xyz --charge 0 --gfn 2 --norestart
          coordinate file            : /home/xchen/Test/benchmark/md_sampled/02_6_0901_0/snap_0058.xyz
          omp threads                :                    48


           -------------------------------------------------
          |                 G F N 2 - x T B                 |
           -------------------------------------------------

        Reference                      10.1021/acs.jctc.8b01176
      * Hamiltonian:
        H0-scaling (s, p, d)           1.850000    2.230000    2.230000
        zeta-weighting                 0.500000
      * Dispersion:
        s8                             2.700000
        a1                             0.520000
        a2                             5.000000
        s9                             5.000000
      * Repulsion:
        kExp                           1.500000    1.000000
        rExp                           1.000000
      * Coulomb:
        alpha                          2.000000
        third order                    shell-resolved
        anisotropic                    true
        a3                             3.000000
        a5                             4.000000
        cn-shift                       1.200000
        cn-exp                         4.000000
        max-rad                        5.000000


          ...................................................
          :                      SETUP                      :
          :.................................................:
          :  # basis functions                 258          :
          :  # atomic orbitals                 256          :
          :  # shells                          148          :
          :  # electrons                       276          :
          :  max. iterations                   250          :
          :  Hamiltonian                  GFN2-xTB          :
          :  restarted?                      false          :
          :  GBSA solvation                  false          :
          :  PC potential                    false          :
          :  electronic temp.          300.0000000     K    :
          :  accuracy                    1.0000000          :
          :  -> integral cutoff          0.2500000E+02      :
          :  -> integral neglect         0.1000000E-07      :
          :  -> SCF convergence          0.1000000E-05 Eh   :
          :  -> wf. convergence          0.1000000E-03 e    :
          :  Broyden damping             0.4000000          :
          :  net charge                          0          :
          :  unpaired electrons                  0          :
          ...................................................

 iter      E             dE          RMSdq      gap      omega  full diag
   1   -157.0590631 -0.157059E+03  0.437E+00    4.06       0.0  T
   2   -157.5903248 -0.531262E+00  0.241E+00    3.50       1.0  T
   3   -157.6325069 -0.421821E-01  0.135E+00    3.44       1.0  T
   4   -157.6377238 -0.521693E-02  0.324E-01    2.94       1.0  T
   5   -157.6429246 -0.520086E-02  0.147E-01    3.03       1.0  T
   6   -157.6430271 -0.102498E-03  0.597E-02    3.05       1.0  T
   7   -157.6431451 -0.117951E-03  0.279E-02    3.05       1.0  T
   8   -157.6431635 -0.184085E-04  0.108E-02    3.05       1.0  T
   9   -157.6431647 -0.118856E-05  0.400E-03    3.05       2.6  T
  10   -157.6431651 -0.384239E-06  0.148E-03    3.05       6.9  T
  11   -157.6431651 -0.337712E-07  0.730E-04    3.05      14.0  T
  12   -157.6431651 -0.888448E-08  0.271E-04    3.05      37.6  T

   *** convergence criteria satisfied after 12 iterations ***

         #    Occupation            Energy/Eh            Energy/eV
      -------------------------------------------------------------
         1        2.0000           -0.7238945             -19.6982
       ...           ...                  ...                  ...
       132        2.0000           -0.3983308             -10.8391
       133        2.0000           -0.3960467             -10.7770
       134        2.0000           -0.3939827             -10.7208
       135        2.0000           -0.3922889             -10.6747
       136        2.0000           -0.3822290             -10.4010
       137        2.0000           -0.3662519              -9.9662
       138        2.0000           -0.3578065              -9.7364 (HOMO)
       139                         -0.2457598              -6.6875 (LUMO)
       140                         -0.2448695              -6.6632
       141                         -0.2412624              -6.5651
       142                         -0.2387724              -6.4973
       143                         -0.2360562              -6.4234
       ...                                ...                  ...
       256                          0.6710376              18.2599
      -------------------------------------------------------------
                  HL-Gap            0.1120467 Eh            3.0489 eV
             Fermi-level           -0.3017831 Eh           -8.2119 eV

 SCC (total)                   0 d,  0 h,  0 min, 11.589 sec
 SCC setup                      ...        0 min,  0.029 sec (  0.254%)
 Dispersion                     ...        0 min,  0.064 sec (  0.551%)
 classical contributions        ...        0 min,  0.007 sec (  0.060%)
 integral evaluation            ...        0 min,  0.367 sec (  3.171%)
 iterations                     ...        0 min, 10.278 sec ( 88.686%)
 molecular gradient             ...        0 min,  0.829 sec (  7.155%)
 printout                       ...        0 min,  0.014 sec (  0.121%)

         :::::::::::::::::::::::::::::::::::::::::::::::::::::
         ::                     SUMMARY                     ::
         :::::::::::::::::::::::::::::::::::::::::::::::::::::
         :: total energy            -155.908160744721 Eh    ::
         :: gradient norm              0.347294995364 Eh/a0 ::
         :: HOMO-LUMO gap              3.048946981621 eV    ::
         ::.................................................::
         :: SCC energy              -157.637430740932 Eh    ::
         :: -> isotropic ES            0.323773578044 Eh    ::
         :: -> anisotropic ES          0.015057661499 Eh    ::
         :: -> anisotropic XC          0.061307172933 Eh    ::
         :: -> dispersion             -0.116979563061 Eh    ::
         :: repulsion energy           1.729269996211 Eh    ::
         :: add. restraining           0.000000000000 Eh    ::
         :: total charge              -0.000000000000 e     ::
         :::::::::::::::::::::::::::::::::::::::::::::::::::::

           -------------------------------------------------
          |                Property Printout                |
           -------------------------------------------------

    * Orbital Energies and Occupations

         #    Occupation            Energy/Eh            Energy/eV
      -------------------------------------------------------------
         1        2.0000           -0.7238945             -19.6982
       ...           ...                  ...                  ...
       126        2.0000           -0.4147802             -11.2867
       127        2.0000           -0.4139033             -11.2629
       128        2.0000           -0.4127409             -11.2313
       129        2.0000           -0.4100687             -11.1585
       130        2.0000           -0.4050124             -11.0209
       131        2.0000           -0.4002759             -10.8921
       132        2.0000           -0.3983308             -10.8391
       133        2.0000           -0.3960467             -10.7770
       134        2.0000           -0.3939827             -10.7208
       135        2.0000           -0.3922889             -10.6747
       136        2.0000           -0.3822290             -10.4010
       137        2.0000           -0.3662519              -9.9662
       138        2.0000           -0.3578065              -9.7364 (HOMO)
       139                         -0.2457598              -6.6875 (LUMO)
       140                         -0.2448695              -6.6632
       141                         -0.2412624              -6.5651
       142                         -0.2387724              -6.4973
       143                         -0.2360562              -6.4234
       144                         -0.2288890              -6.2284
       145                         -0.2273080              -6.1854
       146                         -0.2226581              -6.0588
       147                         -0.2116356              -5.7589
       148                         -0.2046059              -5.5676
       149                         -0.2031206              -5.5272
       ...                                ...                  ...
       256                          0.6710376              18.2599
      -------------------------------------------------------------
                  HL-Gap            0.1120467 Eh            3.0489 eV
             Fermi-level           -0.3017831 Eh           -8.2119 eV

     #   Z          covCN         q      C6AA      α(0)
     1   7 N        2.684    -0.201    25.378     7.482
     2   6 C        3.782     0.018    20.300     6.418
     3   6 C        2.762     0.280    22.256     7.726
     4   8 O        0.858    -0.399    21.667     6.241
     5   7 N        2.714    -0.163    24.529     7.356
     6   6 C        3.807     0.026    20.125     6.386
     7   6 C        2.752     0.260    22.619     7.788
     8   6 C        3.785     0.024    20.181     6.399
     9   8 O        0.860    -0.461    22.944     6.422
    10   7 N        2.694    -0.174    24.773     7.392
    11   6 C        3.794    -0.088    22.178     6.706
    12   6 C        2.754     0.282    22.227     7.720
    13   6 C        3.172     0.050    26.514     8.411
    14   6 C        3.788     0.007    20.469     6.444
    15   8 O        0.859    -0.411    21.901     6.275
    16   7 N        1.934    -0.300    28.605     7.931
    17   6 C        3.037    -0.017    28.397     8.741
    18   7 N        2.717    -0.152    24.276     7.318
    19   6 C        3.794    -0.060    21.669     6.629
    20   6 C        3.097     0.072    26.267     8.399
    21   7 N        2.850    -0.070    22.590     7.059
    22   6 C        3.736     0.008    20.529     6.466
    23   6 C        2.755     0.264    22.545     7.775
    24   6 C        3.796    -0.063    21.715     6.636
    25   6 C        3.811     0.010    20.400     6.429
    26   8 O        0.858    -0.411    21.906     6.275
    27   7 N        2.694    -0.218    25.751     7.537
    28   6 C        3.780    -0.041    21.332     6.580
    29   6 C        2.771     0.283    22.205     7.718
    30   6 C        3.791    -0.009    20.741     6.486
    31   6 C        3.779     0.019    20.271     6.414
    32   8 O        0.858    -0.397    21.627     6.235
    33  16 S        1.941    -0.222   150.556    20.652
    34   7 N        2.679    -0.182    24.947     7.418
    35   6 C        3.804    -0.069    21.813     6.649
    36   6 C        3.718    -0.057    21.726     6.658
    37   6 C        2.745     0.256    22.688     7.799
    38   6 C        3.800    -0.107    22.541     6.760
    39   8 O        0.857    -0.452    22.750     6.395
    40   6 C        2.748     0.283    22.214     7.717
    41   8 O        0.858    -0.449    22.683     6.385
    42   7 N        2.635    -0.273    27.063     7.726
    43   6 C        3.807    -0.050    21.474     6.597
    44   6 C        3.802    -0.012    20.792     6.492
    45  16 S        1.962    -0.212   150.104    20.621
    46   6 C        3.739    -0.067    21.859     6.671
    47   6 C        3.825    -0.092    22.240     6.711
    48   6 C        2.739     0.283    22.211     7.716
    49   8 O        0.860    -0.390    21.485     6.215
    50   7 N        2.635    -0.295    27.600     7.802
    51   1 H        0.861     0.196     1.125     1.662
    52   1 H        0.925     0.086     1.922     2.168
    53   1 H        0.861     0.165     1.305     1.789
    54   1 H        0.923     0.096     1.825     2.113
    55   1 H        0.921     0.079     1.989     2.205
    56   1 H        0.861     0.174     1.249     1.750
    57   1 H        0.919     0.055     2.263     2.353
    58   1 H        0.929     0.081     1.965     2.192
    59   1 H        0.923     0.098     1.804     2.101
    60   1 H        0.925     0.049     2.327     2.386
    61   1 H        0.917     0.045     2.390     2.418
    62   1 H        0.927     0.057     2.232     2.336
    63   1 H        0.921     0.041     2.440     2.443
    64   1 H        0.861     0.164     1.312     1.794
    65   1 H        0.928     0.066     2.130     2.282
    66   1 H        0.916     0.038     2.473     2.460
    67   1 H        0.925     0.056     2.251     2.346
    68   1 H        0.923     0.046     2.370     2.408
    69   1 H        0.929     0.121     1.601     1.978
    70   1 H        0.859     0.201     1.102     1.644
    71   1 H        0.915     0.037     2.496     2.471
    72   1 H        0.897     0.022     2.715     2.578
    73   1 H        0.925     0.066     2.128     2.281
    74   1 H        0.921     0.048     2.348     2.396
    75   1 H        0.901     0.066     2.136     2.286
    76   1 H        0.860     0.211     1.053     1.607
    77   1 H        0.920     0.079     1.987     2.205
    78   1 H        0.927     0.074     2.040     2.233
    79   1 H        0.926     0.067     2.116     2.275
    80   1 H        0.921     0.058     2.222     2.331
    81   1 H        0.911     0.054     2.274     2.359
    82   1 H        0.923     0.064     2.148     2.292
    83   1 H        0.922     0.063     2.168     2.302
    84   1 H        0.862     0.201     1.102     1.645
    85   1 H        0.857     0.199     1.112     1.652
    86   1 H        0.887     0.040     2.463     2.456
    87   1 H        0.925     0.043     2.411     2.428
    88   1 H        0.928     0.090     1.878     2.143
    89   1 H        0.926     0.057     2.234     2.337
    90   1 H        0.926     0.063     2.168     2.303
    91   1 H        0.921     0.048     2.346     2.395
    92   1 H        0.929     0.067     2.119     2.276
    93   1 H        0.921     0.046     2.376     2.411
    94   1 H        0.918     0.091     1.875     2.141
    95   1 H        0.862     0.205     1.082     1.629
    96   1 H        0.859     0.171     1.268     1.764

 Mol. C6AA /au·bohr⁶  :     100248.674118
 Mol. C8AA /au·bohr⁸  :    2413591.612260
 Mol. α(0) /au        :        478.802901


Wiberg/Mayer (AO) data.
largest (>0.10) Wiberg bond orders for each atom

 ---------------------------------------------------------------------------
     #   Z sym  total        # sym  WBO       # sym  WBO       # sym  WBO
 ---------------------------------------------------------------------------
     1   7 N    3.436 --     7 C    1.300     2 C    0.926    51 H    0.926
                             9 O    0.201
     2   6 C    3.950 --    43 C    0.973     3 C    0.959    52 H    0.958
                             1 N    0.926
     3   6 C    3.956 --     4 O    1.708     5 N    1.212     2 C    0.959
     4   8 O    2.039 --     3 C    1.708     5 N    0.194
     5   7 N    3.439 --     3 C    1.212     6 C    1.015    53 H    0.939
                             4 O    0.194
     6   6 C    3.965 --     5 N    1.015    47 C    0.988    54 H    0.928
                            37 C    0.908
     7   6 C    3.951 --     9 O    1.653     1 N    1.300     8 C    0.938
     8   6 C    3.964 --    10 N    0.993    11 C    0.956    55 H    0.948
                             7 C    0.938
     9   8 O    1.967 --     7 C    1.653     1 N    0.201
    10   7 N    3.423 --    12 C    1.219     8 C    0.993    56 H    0.934
                            15 O    0.190
    11   6 C    3.987 --    13 C    1.000    57 H    0.972    58 H    0.969
                             8 C    0.956
    12   6 C    3.953 --    15 O    1.700    10 N    1.219    14 C    0.965
    13   6 C    3.970 --    17 C    1.541    16 N    1.295    11 C    1.000
    14   6 C    3.960 --    19 C    0.988    12 C    0.965    59 H    0.947
                            18 N    0.928
    15   8 O    2.020 --    12 C    1.700    10 N    0.190
    16   7 N    3.002 --    20 C    1.519    13 C    1.295
    17   6 C    3.937 --    13 C    1.541    21 N    1.223    60 H    0.963
                            20 C    0.132
    18   7 N    3.421 --    23 C    1.237    22 C    0.970    14 C    0.928
                            26 O    0.194
    19   6 C    3.989 --    24 C    0.989    14 C    0.988    61 H    0.979
                            62 H    0.976
    20   6 C    3.953 --    16 N    1.519    21 N    1.272    63 H    0.965
                            17 C    0.132
    21   7 N    3.607 --    20 C    1.272    17 C    1.223    64 H    0.944
    22   6 C    3.971 --    24 C    1.008    66 H    0.970    18 N    0.970
                            65 H    0.963
    23   6 C    3.953 --    26 O    1.700    18 N    1.237    25 C    0.936
    24   6 C    3.990 --    22 C    1.008    19 C    0.989    68 H    0.980
                            67 H    0.979
    25   6 C    3.956 --    28 C    0.990    27 N    0.961    69 H    0.942
                            23 C    0.936
    26   8 O    2.023 --    23 C    1.700    18 N    0.194
    27   7 N    3.408 --    29 C    1.231    25 C    0.961    70 H    0.906
                            32 O    0.205
    28   6 C    3.990 --    30 C    1.025    25 C    0.990    71 H    0.962
                            72 H    0.944
    29   6 C    3.954 --    32 O    1.712    27 N    1.231    31 C    0.946
    30   6 C    3.981 --    28 C    1.025    33 S    0.983    74 H    0.970
                            73 H    0.965
    31   6 C    3.951 --    35 C    0.990    75 H    0.955    29 C    0.946
                            34 N    0.936
    32   8 O    2.054 --    29 C    1.712    27 N    0.205
    33  16 S    2.072 --    36 C    0.998    30 C    0.983
    34   7 N    3.463 --    37 C    1.322    31 C    0.936    76 H    0.925
                            39 O    0.204
    35   6 C    3.981 --    31 C    0.990    78 H    0.973    38 C    0.971
                            77 H    0.955
    36   6 C    3.971 --    33 S    0.998    81 H    0.987    80 H    0.982
                            79 H    0.981
    37   6 C    3.953 --    39 O    1.627    34 N    1.322     6 C    0.908
    38   6 C    3.985 --    40 C    0.984    35 C    0.971    83 H    0.964
                            82 H    0.957
    39   8 O    1.997 --    37 C    1.627    34 N    0.204
    40   6 C    3.950 --    41 O    1.671    42 N    1.265    38 C    0.984
    41   8 O    1.976 --    40 C    1.671    42 N    0.198
    42   7 N    3.376 --    40 C    1.265    84 H    0.940    85 H    0.934
                            41 O    0.198
    43   6 C    3.987 --    44 C    1.019    87 H    0.974     2 C    0.973
                            86 H    0.956
    44   6 C    3.976 --    43 C    1.019    45 S    0.985    89 H    0.974
                            88 H    0.962
    45  16 S    2.063 --    46 C    1.004    44 C    0.985
    46   6 C    3.979 --    45 S    1.004    92 H    0.990    90 H    0.983
                            91 H    0.979
    47   6 C    3.991 --     6 C    0.988    93 H    0.967    48 C    0.960
                            94 H    0.947
    48   6 C    3.945 --    49 O    1.760    50 N    1.197    47 C    0.960
    49   8 O    2.064 --    48 C    1.760    50 N    0.199
    50   7 N    3.327 --    48 C    1.197    96 H    0.952    95 H    0.943
                            49 O    0.199
    51   1 H    0.961 --     1 N    0.926
    52   1 H    0.992 --     2 C    0.958
    53   1 H    0.973 --     5 N    0.939
    54   1 H    0.991 --     6 C    0.928
    55   1 H    0.993 --     8 C    0.948
    56   1 H    0.970 --    10 N    0.934
    57   1 H    0.997 --    11 C    0.972
    58   1 H    0.993 --    11 C    0.969
    59   1 H    0.990 --    14 C    0.947
    60   1 H    0.998 --    17 C    0.963
    61   1 H    0.998 --    19 C    0.979
    62   1 H    0.996 --    19 C    0.976
    63   1 H    0.998 --    20 C    0.965
    64   1 H    0.973 --    21 N    0.944
    65   1 H    0.995 --    22 C    0.963
    66   1 H    0.999 --    22 C    0.970
    67   1 H    0.996 --    24 C    0.979
    68   1 H    0.998 --    24 C    0.980
    69   1 H    0.985 --    25 C    0.942
    70   1 H    0.960 --    27 N    0.906
    71   1 H    0.998 --    28 C    0.962
    72   1 H    0.999 --    28 C    0.944
    73   1 H    0.996 --    30 C    0.965
    74   1 H    0.997 --    30 C    0.970
    75   1 H    0.995 --    31 C    0.955
    76   1 H    0.955 --    34 N    0.925
    77   1 H    0.994 --    35 C    0.955
    78   1 H    0.994 --    35 C    0.973
    79   1 H    0.995 --    36 C    0.981
    80   1 H    0.997 --    36 C    0.982
    81   1 H    0.997 --    36 C    0.987
    82   1 H    0.996 --    38 C    0.957
    83   1 H    0.996 --    38 C    0.964
    84   1 H    0.960 --    42 N    0.940
    85   1 H    0.960 --    42 N    0.934
    86   1 H    0.998 --    43 C    0.956
    87   1 H    0.998 --    43 C    0.974
    88   1 H    0.992 --    44 C    0.962
    89   1 H    0.997 --    44 C    0.974
    90   1 H    0.996 --    46 C    0.983
    91   1 H    0.998 --    46 C    0.979
    92   1 H    0.996 --    46 C    0.990
    93   1 H    0.998 --    47 C    0.967
    94   1 H    0.991 --    47 C    0.947
    95   1 H    0.958 --    50 N    0.943
    96   1 H    0.971 --    50 N    0.952
 ---------------------------------------------------------------------------

Topologies differ in total number of bonds
Writing topology from bond orders to xtbtopo.mol

molecular dipole:
                 x           y           z       tot (Debye)
 q only:        1.461      -3.390      -3.733
   full:        1.547      -4.715      -4.265      16.632
molecular quadrupole (traceless):
                xx          xy          yy          xz          yz          zz
 q only:       27.865      -6.954     -32.067       9.907      33.443       4.203
  q+dip:       23.068     -12.713     -27.584      19.134      46.024       4.517
   full:       23.816     -13.989     -29.057      18.401      45.175       5.242


           -------------------------------------------------
          | TOTAL ENERGY             -155.908160744721 Eh   |
          | GRADIENT NORM               0.347294995364 Eh/α |
          | HOMO-LUMO GAP               3.048946981621 eV   |
           -------------------------------------------------

------------------------------------------------------------------------
 * finished run on 2026/05/23 at 08:15:28.109     
------------------------------------------------------------------------
 total:
 * wall-time:     0 d,  0 h,  0 min, 12.343 sec
 *  cpu-time:     0 d,  0 h,  0 min, 19.132 sec
 * ratio c/w:     1.550 speedup
 SCF:
 * wall-time:     0 d,  0 h,  0 min, 11.590 sec
 *  cpu-time:     0 d,  0 h,  0 min, 18.451 sec
 * ratio c/w:     1.592 speedup

normal termination of xtb
