      -----------------------------------------------------------      
     |                   =====================                   |     
     |                           x T B                           |     
     |                   =====================                   |     
     |                         S. Grimme                         |     
     |          Mulliken Center for Theoretical Chemistry        |     
     |                    University of Bonn                     |     
      -----------------------------------------------------------      

   * xtb version 6.7.1 (edcfbbe) compiled by 'albert@albert-system' on 2024-07-22

   xtb is free software: you can redistribute it and/or modify it under
   the terms of the GNU Lesser General Public License as published by
   the Free Software Foundation, either version 3 of the License, or
   (at your option) any later version.
   
   xtb is distributed in the hope that it will be useful,
   but WITHOUT ANY WARRANTY; without even the implied warranty of
   MERCHANTABILITY or FITNESS FOR A PARTICULAR PURPOSE.  See the
   GNU Lesser General Public License for more details.
   
   Cite this work as:
   * C. Bannwarth, E. Caldeweyher, S. Ehlert, A. Hansen, P. Pracht,
     J. Seibert, S. Spicher, S. Grimme, WIREs Comput. Mol. Sci., 2020, 11,
     e01493. DOI: 10.1002/wcms.1493
   
   for GFN2-xTB:
   * C. Bannwarth, S. Ehlert and S. Grimme., J. Chem. Theory Comput., 2019,
     15, 1652-1671. DOI: 10.1021/acs.jctc.8b01176
   for GFN1-xTB:
   * S. Grimme, C. Bannwarth, P. Shushkov, J. Chem. Theory Comput., 2017,
     13, 1989-2009. DOI: 10.1021/acs.jctc.7b00118
   for GFN0-xTB:
   * P. Pracht, E. Caldeweyher, S. Ehlert, S. Grimme, ChemRxiv, 2019, preprint.
     DOI: 10.26434/chemrxiv.8326202.v1
   for GFN-FF:
   * S. Spicher and S. Grimme, Angew. Chem. Int. Ed., 2020, 59, 15665-15673.
     DOI: 10.1002/anie.202004239
   
   for ALPB and GBSA implicit solvation:
   * S. Ehlert, M. Stahn, S. Spicher, S. Grimme, J. Chem. Theory Comput.,
     2021, 17, 4250-4261. DOI: 10.1021/acs.jctc.1c00471
   
   for ddCOSMO and CPCM-X implicit solvation:
   * M. Stahn, S. Ehlert, S. Grimme, J. Phys. Chem. A,
     2023, XX, XXXX-XXXX. DOI: 10.1021/acs.jpca.3c04382
   
   for DFT-D4:
   * E. Caldeweyher, C. Bannwarth and S. Grimme, J. Chem. Phys., 2017,
     147, 034112. DOI: 10.1063/1.4993215
   * E. Caldeweyher, S. Ehlert, A. Hansen, H. Neugebauer, S. Spicher,
     C. Bannwarth and S. Grimme, J. Chem. Phys., 2019, 150, 154122.
     DOI: 10.1063/1.5090222
   * E. Caldeweyher, J.-M. Mewes, S. Ehlert and S. Grimme, Phys. Chem. Chem. Phys.
     2020, 22, 8499-8512. DOI: 10.1039/D0CP00502A
   
   for sTDA-xTB:
   * S. Grimme and C. Bannwarth, J. Chem. Phys., 2016, 145, 054103.
     DOI: 10.1063/1.4959605
   
   in the mass-spec context:
   * V. Asgeirsson, C. Bauer and S. Grimme, Chem. Sci., 2017, 8, 4879.
     DOI: 10.1039/c7sc00601b
   * J. Koopman and S. Grimme, ACS Omega 2019, 4, 12, 15120-15133.
     DOI: 10.1021/acsomega.9b02011
   
   for metadynamics refer to:
   * S. Grimme, J. Chem. Theory Comput., 2019, 155, 2847-2862
     DOI: 10.1021/acs.jctc.9b00143
   
   for SPH calculations refer to:
   * S. Spicher and S. Grimme, J. Chem. Theory Comput., 2021, 17, 1701-1714
     DOI: 10.1021/acs.jctc.0c01306
   
   for ONIOM refer to:
   * C. Plett, A. Katbashev, S. Ehlert, S. Grimme, M. Bursch,
     Phys. Chem. Chem. Phys., 2023, 25, 17860-17868. DOI: 10.1039/D3CP02178E
   
   for DIPRO refer to:
   * J. Kohn, N. Gildemeister, S. Grimme, D. Fazzi, A. Hansen,
     J. Chem. Phys., 2023, just accepted.
   
   for PTB refer to:
   * S. Grimme, M. Mueller, A. Hansen, J. Chem. Phys., 2023, 158, 124111.
     DOI: 10.1063/5.0137838
   
   with help from (in alphabetical order)
   P. Atkinson, C. Bannwarth, F. Bohle, G. Brandenburg, E. Caldeweyher
   M. Checinski, S. Dohm, S. Ehlert, S. Ehrlich, I. Gerasimov, C. Hölzer
   A. Katbashev, J. Kohn, J. Koopman, C. Lavigne, S. Lehtola, F. März, M. Müller,
   F. Musil, H. Neugebauer, J. Pisarek, C. Plett, P. Pracht, F. Pultar,
   J. Seibert, P. Shushkov, S. Spicher, M. Stahn, M. Steiner, T. Strunk,
   J. Stückrath, T. Rose, and J. Unsleber
   
 * started run on 2026/05/23 at 12:39:47.108     
   ID    Z sym.   atoms
    1    7 N      1, 5, 10, 17, 18, 25, 30, 33
    2    6 C      2, 3, 6-8, 11-14, 19-23, 26-28, 31, 32, 34, 36-39
    3    8 O      4, 9, 15, 16, 24, 29, 35
    4    1 H      40-77

           -------------------------------------------------
          |                Calculation Setup                |
           -------------------------------------------------

          program call               : /home/xchen/software/xtb-6.7.1/xtb-dist/bin/xtb /home/xchen/Test/benchmark/md_sampled/05_5_0513_0/snap_0139.xyz --charge 0 --gfn 2 --norestart
          coordinate file            : /home/xchen/Test/benchmark/md_sampled/05_5_0513_0/snap_0139.xyz
          omp threads                :                    48


           -------------------------------------------------
          |                 G F N 2 - x T B                 |
           -------------------------------------------------

        Reference                      10.1021/acs.jctc.8b01176
      * Hamiltonian:
        H0-scaling (s, p, d)           1.850000    2.230000    2.230000
        zeta-weighting                 0.500000
      * Dispersion:
        s8                             2.700000
        a1                             0.520000
        a2                             5.000000
        s9                             5.000000
      * Repulsion:
        kExp                           1.500000    1.000000
        rExp                           1.000000
      * Coulomb:
        alpha                          2.000000
        third order                    shell-resolved
        anisotropic                    true
        a3                             3.000000
        a5                             4.000000
        cn-shift                       1.200000
        cn-exp                         4.000000
        max-rad                        5.000000


          ...................................................
          :                      SETUP                      :
          :.................................................:
          :  # basis functions                 194          :
          :  # atomic orbitals                 194          :
          :  # shells                          116          :
          :  # electrons                       216          :
          :  max. iterations                   250          :
          :  Hamiltonian                  GFN2-xTB          :
          :  restarted?                      false          :
          :  GBSA solvation                  false          :
          :  PC potential                    false          :
          :  electronic temp.          300.0000000     K    :
          :  accuracy                    1.0000000          :
          :  -> integral cutoff          0.2500000E+02      :
          :  -> integral neglect         0.1000000E-07      :
          :  -> SCF convergence          0.1000000E-05 Eh   :
          :  -> wf. convergence          0.1000000E-03 e    :
          :  Broyden damping             0.4000000          :
          :  net charge                          0          :
          :  unpaired electrons                  0          :
          ...................................................

 iter      E             dE          RMSdq      gap      omega  full diag
   1   -123.6056851 -0.123606E+03  0.410E+00    3.96       0.0  T
   2   -123.9784430 -0.372758E+00  0.225E+00    3.53       1.0  T
   3   -123.9966400 -0.181970E-01  0.126E+00    3.79       1.0  T
   4   -123.9964115  0.228556E-03  0.310E-01    3.55       1.0  T
   5   -124.0021695 -0.575801E-02  0.104E-01    3.65       1.0  T
   6   -124.0022734 -0.103903E-03  0.585E-02    3.67       1.0  T
   7   -124.0023704 -0.970706E-04  0.218E-02    3.67       1.0  T
   8   -124.0023757 -0.521672E-05  0.683E-03    3.67       1.7  T
   9   -124.0023762 -0.543931E-06  0.296E-03    3.67       3.9  T
  10   -124.0023763 -0.648433E-07  0.115E-03    3.67       9.9  T
  11   -124.0023763 -0.288447E-07  0.465E-04    3.67      24.5  T
  12   -124.0023763 -0.644154E-08  0.142E-04    3.67      80.4  T

   *** convergence criteria satisfied after 12 iterations ***

         #    Occupation            Energy/Eh            Energy/eV
      -------------------------------------------------------------
         1        2.0000           -0.7257506             -19.7487
       ...           ...                  ...                  ...
       102        2.0000           -0.4063876             -11.0584
       103        2.0000           -0.4000993             -10.8873
       104        2.0000           -0.3994670             -10.8701
       105        2.0000           -0.3980031             -10.8302
       106        2.0000           -0.3921212             -10.6702
       107        2.0000           -0.3908864             -10.6366
       108        2.0000           -0.3862728             -10.5110 (HOMO)
       109                         -0.2514881              -6.8433 (LUMO)
       110                         -0.2473194              -6.7299
       111                         -0.2364386              -6.4338
       112                         -0.2308037              -6.2805
       113                         -0.2221571              -6.0452
       ...                                ...                  ...
       194                          0.6791086              18.4795
      -------------------------------------------------------------
                  HL-Gap            0.1347846 Eh            3.6677 eV
             Fermi-level           -0.3188804 Eh           -8.6772 eV

 SCC (total)                   0 d,  0 h,  0 min,  7.895 sec
 SCC setup                      ...        0 min,  0.034 sec (  0.436%)
 Dispersion                     ...        0 min,  0.089 sec (  1.131%)
 classical contributions        ...        0 min,  0.008 sec (  0.100%)
 integral evaluation            ...        0 min,  0.353 sec (  4.474%)
 iterations                     ...        0 min,  6.901 sec ( 87.407%)
 molecular gradient             ...        0 min,  0.480 sec (  6.086%)
 printout                       ...        0 min,  0.029 sec (  0.363%)

         :::::::::::::::::::::::::::::::::::::::::::::::::::::
         ::                     SUMMARY                     ::
         :::::::::::::::::::::::::::::::::::::::::::::::::::::
         :: total energy            -122.565613546458 Eh    ::
         :: gradient norm              0.316463541593 Eh/a0 ::
         :: HOMO-LUMO gap              3.667676499058 eV    ::
         ::.................................................::
         :: SCC energy              -123.998662497146 Eh    ::
         :: -> isotropic ES            0.265469198393 Eh    ::
         :: -> anisotropic ES          0.011447323925 Eh    ::
         :: -> anisotropic XC          0.040951315798 Eh    ::
         :: -> dispersion             -0.092352684085 Eh    ::
         :: repulsion energy           1.433048950688 Eh    ::
         :: add. restraining           0.000000000000 Eh    ::
         :: total charge              -0.000000000000 e     ::
         :::::::::::::::::::::::::::::::::::::::::::::::::::::

           -------------------------------------------------
          |                Property Printout                |
           -------------------------------------------------

    * Orbital Energies and Occupations

         #    Occupation            Energy/Eh            Energy/eV
      -------------------------------------------------------------
         1        2.0000           -0.7257506             -19.7487
       ...           ...                  ...                  ...
        96        2.0000           -0.4293947             -11.6844
        97        2.0000           -0.4243817             -11.5480
        98        2.0000           -0.4212624             -11.4631
        99        2.0000           -0.4159129             -11.3176
       100        2.0000           -0.4107976             -11.1784
       101        2.0000           -0.4076703             -11.0933
       102        2.0000           -0.4063876             -11.0584
       103        2.0000           -0.4000993             -10.8873
       104        2.0000           -0.3994670             -10.8701
       105        2.0000           -0.3980031             -10.8302
       106        2.0000           -0.3921212             -10.6702
       107        2.0000           -0.3908864             -10.6366
       108        2.0000           -0.3862728             -10.5110 (HOMO)
       109                         -0.2514881              -6.8433 (LUMO)
       110                         -0.2473194              -6.7299
       111                         -0.2364386              -6.4338
       112                         -0.2308037              -6.2805
       113                         -0.2221571              -6.0452
       114                         -0.2200093              -5.9868
       115                         -0.2151672              -5.8550
       116                         -0.1989313              -5.4132
       117                         -0.0597723              -1.6265
       118                         -0.0474530              -1.2913
       119                         -0.0270146              -0.7351
       ...                                ...                  ...
       194                          0.6791086              18.4795
      -------------------------------------------------------------
                  HL-Gap            0.1347846 Eh            3.6677 eV
             Fermi-level           -0.3188804 Eh           -8.6772 eV

     #   Z          covCN         q      C6AA      α(0)
     1   7 N        2.697    -0.219    25.781     7.541
     2   6 C        3.822     0.004    20.501     6.443
     3   6 C        2.772     0.274    22.375     7.747
     4   8 O        0.857    -0.435    22.393     6.344
     5   7 N        2.780    -0.165    24.563     7.361
     6   6 C        3.789     0.021    20.237     6.407
     7   6 C        2.786     0.280    22.271     7.730
     8   6 C        3.802     0.025    20.145     6.390
     9   8 O        0.859    -0.391    21.498     6.217
    10   7 N        2.700    -0.184    24.986     7.424
    11   6 C        3.811    -0.101    22.408     6.738
    12   6 C        2.749     0.270    22.437     7.756
    13   6 C        2.749     0.281    22.248     7.723
    14   6 C        3.785     0.017    20.312     6.420
    15   8 O        0.863    -0.440    22.501     6.360
    16   8 O        0.858    -0.440    22.488     6.358
    17   7 N        2.638    -0.275    27.101     7.732
    18   7 N        2.680    -0.198    25.303     7.471
    19   6 C        3.857    -0.008    20.678     6.467
    20   6 C        2.754     0.274    22.359     7.743
    21   6 C        3.741    -0.116    22.796     6.812
    22   6 C        3.738    -0.110    22.690     6.797
    23   6 C        3.793     0.027    20.134     6.390
    24   8 O        0.858    -0.383    21.345     6.194
    25   7 N        2.687    -0.152    24.284     7.319
    26   6 C        3.791    -0.057    21.603     6.619
    27   6 C        2.819     0.257    22.682     7.804
    28   6 C        3.114     0.063    26.445     8.424
    29   8 O        0.857    -0.492    23.607     6.514
    30   7 N        1.967    -0.280    28.071     7.857
    31   6 C        3.098    -0.034    28.731     8.784
    32   6 C        3.120     0.091    25.823     8.323
    33   7 N        2.817    -0.077    22.731     7.081
    34   6 C        3.649     0.082    19.516     6.346
    35   8 O        1.660    -0.421    21.254     6.224
    36   6 C        3.831    -0.023    20.964     6.515
    37   6 C        3.754    -0.110    22.665     6.789
    38   6 C        3.794    -0.064    21.732     6.638
    39   6 C        3.717    -0.091    22.370     6.756
    40   1 H        0.861     0.194     1.137     1.670
    41   1 H        0.927     0.074     2.039     2.233
    42   1 H        0.862     0.203     1.090     1.635
    43   1 H        0.924     0.063     2.170     2.304
    44   1 H        0.923     0.089     1.890     2.150
    45   1 H        0.860     0.185     1.185     1.705
    46   1 H        0.928     0.074     2.041     2.234
    47   1 H        0.926     0.078     1.998     2.210
    48   1 H        0.916     0.068     2.105     2.269
    49   1 H        0.860     0.195     1.132     1.666
    50   1 H        0.862     0.216     1.029     1.589
    51   1 H        0.859     0.200     1.105     1.647
    52   1 H        0.926     0.039     2.466     2.456
    53   1 H        0.917     0.045     2.390     2.418
    54   1 H        0.928     0.056     2.249     2.345
    55   1 H        0.913     0.038     2.472     2.459
    56   1 H        0.925     0.043     2.407     2.426
    57   1 H        0.925     0.046     2.372     2.408
    58   1 H        0.902     0.057     2.235     2.339
    59   1 H        0.928     0.083     1.948     2.183
    60   1 H        0.855     0.192     1.149     1.680
    61   1 H        0.901     0.036     2.513     2.481
    62   1 H        0.923     0.066     2.132     2.283
    63   1 H        0.927     0.033     2.549     2.497
    64   1 H        0.918     0.031     2.571     2.508
    65   1 H        0.860     0.167     1.291     1.780
    66   1 H        0.899     0.003     3.008     2.714
    67   1 H        0.919     0.042     2.428     2.437
    68   1 H        0.809     0.321     0.662     1.277
    69   1 H        0.921     0.041     2.439     2.442
    70   1 H        0.928     0.052     2.299     2.371
    71   1 H        0.924     0.042     2.417     2.431
    72   1 H        0.924     0.043     2.403     2.424
    73   1 H        0.926     0.043     2.408     2.427
    74   1 H        0.926     0.044     2.399     2.422
    75   1 H        0.925     0.035     2.511     2.478
    76   1 H        0.926     0.047     2.354     2.399
    77   1 H        0.892     0.016     2.797     2.617

 Mol. C6AA /au·bohr⁶  :      57338.289337
 Mol. C8AA /au·bohr⁸  :    1276073.046927
 Mol. α(0) /au        :        358.573477


Wiberg/Mayer (AO) data.
largest (>0.10) Wiberg bond orders for each atom

 ---------------------------------------------------------------------------
     #   Z sym  total        # sym  WBO       # sym  WBO       # sym  WBO
 ---------------------------------------------------------------------------
     1   7 N    3.367 --     7 C    1.168     2 C    0.998    40 H    0.922
                             9 O    0.182
     2   6 C    3.968 --     1 N    0.998    41 H    0.954    34 C    0.951
                             3 C    0.931
     3   6 C    3.956 --     4 O    1.672     5 N    1.263     2 C    0.931
     4   8 O    2.002 --     3 C    1.672     5 N    0.192
     5   7 N    3.476 --     3 C    1.263     6 C    1.013    42 H    0.896
                             4 O    0.192
     6   6 C    3.963 --     5 N    1.013    43 H    0.952    27 C    0.939
                            36 C    0.924
     7   6 C    3.951 --     9 O    1.742     1 N    1.168     8 C    0.966
     8   6 C    3.962 --    10 N    0.967     7 C    0.966    11 C    0.948
                            44 H    0.947
     9   8 O    2.051 --     7 C    1.742     1 N    0.182
    10   7 N    3.413 --    12 C    1.239     8 C    0.967    45 H    0.918
                            15 O    0.178
    11   6 C    3.987 --    13 C    0.983    46 H    0.966    47 H    0.963
                             8 C    0.948
    12   6 C    3.941 --    15 O    1.685    10 N    1.239    14 C    0.932
    13   6 C    3.954 --    16 O    1.693    17 N    1.247    11 C    0.983
    14   6 C    3.965 --    18 N    1.006    19 C    0.947    48 H    0.944
                            12 C    0.932
    15   8 O    1.989 --    12 C    1.685    10 N    0.178
    16   8 O    1.978 --    13 C    1.693    17 N    0.182
    17   7 N    3.328 --    13 C    1.247    49 H    0.939    50 H    0.929
                            16 O    0.182
    18   7 N    3.418 --    20 C    1.201    14 C    1.006    51 H    0.895
                            24 O    0.208
    19   6 C    3.991 --    22 C    1.018    21 C    1.015    52 H    0.958
                            14 C    0.947
    20   6 C    3.952 --    24 O    1.752    18 N    1.201    23 C    0.924
    21   6 C    3.992 --    19 C    1.015    53 H    0.981    55 H    0.978
                            54 H    0.977
    22   6 C    3.988 --    19 C    1.018    57 H    0.983    56 H    0.980
                            58 H    0.977
    23   6 C    3.958 --    26 C    0.996    59 H    0.960    25 N    0.951
                            20 C    0.924
    24   8 O    2.078 --    20 C    1.752    18 N    0.208
    25   7 N    3.490 --    27 C    1.323    23 C    0.951    60 H    0.929
                            29 O    0.191
    26   6 C    3.992 --    28 C    1.036    23 C    0.996    61 H    0.951
                            62 H    0.917
    27   6 C    3.946 --    29 O    1.590    25 N    1.323     6 C    0.939
    28   6 C    3.972 --    31 C    1.507    30 N    1.285    26 C    1.036
    29   8 O    1.942 --    27 C    1.590    25 N    0.191
    30   7 N    3.014 --    32 C    1.521    28 C    1.285
    31   6 C    3.923 --    28 C    1.507    33 N    1.223    63 H    0.970
                            32 C    0.129
    32   6 C    3.949 --    30 N    1.521    33 N    1.284    64 H    0.957
                            31 C    0.129
    33   7 N    3.615 --    32 C    1.284    31 C    1.223    65 H    0.940
    34   6 C    3.960 --    35 O    1.036    67 H    0.962     2 C    0.951
                            66 H    0.949
    35   8 O    1.990 --    34 C    1.036    68 H    0.873
    36   6 C    3.982 --    37 C    1.020    38 C    0.980    69 H    0.967
                             6 C    0.924
    37   6 C    3.991 --    36 C    1.020    72 H    0.983    71 H    0.981
                            70 H    0.979
    38   6 C    3.989 --    39 C    1.023    36 C    0.980    74 H    0.975
                            73 H    0.968
    39   6 C    3.994 --    38 C    1.023    75 H    0.987    76 H    0.987
                            77 H    0.982
    40   1 H    0.962 --     1 N    0.922
    41   1 H    0.994 --     2 C    0.954
    42   1 H    0.959 --     5 N    0.896
    43   1 H    0.996 --     6 C    0.952
    44   1 H    0.992 --     8 C    0.947
    45   1 H    0.966 --    10 N    0.918
    46   1 H    0.994 --    11 C    0.966
    47   1 H    0.994 --    11 C    0.963
    48   1 H    0.995 --    14 C    0.944
    49   1 H    0.962 --    17 N    0.939
    50   1 H    0.953 --    17 N    0.929
    51   1 H    0.960 --    18 N    0.895
    52   1 H    0.998 --    19 C    0.958
    53   1 H    0.998 --    21 C    0.981
    54   1 H    0.997 --    21 C    0.977
    55   1 H    0.999 --    21 C    0.978
    56   1 H    0.997 --    22 C    0.980
    57   1 H    0.998 --    22 C    0.983
    58   1 H    0.997 --    22 C    0.977
    59   1 H    0.993 --    23 C    0.960
    60   1 H    0.963 --    25 N    0.929
    61   1 H    0.998 --    26 C    0.951
    62   1 H    0.996 --    26 C    0.917
    63   1 H    0.999 --    31 C    0.970
    64   1 H    0.998 --    32 C    0.957
    65   1 H    0.972 --    33 N    0.940
    66   1 H    1.000 --    34 C    0.949
    67   1 H    0.998 --    34 C    0.962
    68   1 H    0.897 --    35 O    0.873
    69   1 H    0.998 --    36 C    0.967
    70   1 H    0.996 --    37 C    0.979
    71   1 H    0.998 --    37 C    0.981
    72   1 H    0.998 --    37 C    0.983
    73   1 H    0.998 --    38 C    0.968
    74   1 H    0.998 --    38 C    0.975
    75   1 H    0.999 --    39 C    0.987
    76   1 H    0.998 --    39 C    0.987
    77   1 H    0.999 --    39 C    0.982
 ---------------------------------------------------------------------------

Topologies differ in total number of bonds
Writing topology from bond orders to xtbtopo.mol

molecular dipole:
                 x           y           z       tot (Debye)
 q only:       -3.078      -2.374      -2.492
   full:       -3.880      -3.057      -2.546      14.126
molecular quadrupole (traceless):
                xx          xy          yy          xz          yz          zz
 q only:       19.907      12.256     -12.360     -14.930      -9.103      -7.546
  q+dip:       25.644      24.084     -14.609      -8.116     -11.574     -11.035
   full:       25.193      23.633     -14.171      -9.033     -11.563     -11.022


           -------------------------------------------------
          | TOTAL ENERGY             -122.565613546458 Eh   |
          | GRADIENT NORM               0.316463541593 Eh/α |
          | HOMO-LUMO GAP               3.667676499058 eV   |
           -------------------------------------------------

------------------------------------------------------------------------
 * finished run on 2026/05/23 at 12:39:55.580     
------------------------------------------------------------------------
 total:
 * wall-time:     0 d,  0 h,  0 min,  8.471 sec
 *  cpu-time:     0 d,  0 h,  0 min, 17.952 sec
 * ratio c/w:     2.119 speedup
 SCF:
 * wall-time:     0 d,  0 h,  0 min,  7.896 sec
 *  cpu-time:     0 d,  0 h,  0 min, 17.351 sec
 * ratio c/w:     2.198 speedup

normal termination of xtb
