      -----------------------------------------------------------      
     |                   =====================                   |     
     |                           x T B                           |     
     |                   =====================                   |     
     |                         S. Grimme                         |     
     |          Mulliken Center for Theoretical Chemistry        |     
     |                    University of Bonn                     |     
      -----------------------------------------------------------      

   * xtb version 6.7.1 (26dd68d) compiled by 'froitzheim@fs7' on 2026-05-14

   xtb is free software: you can redistribute it and/or modify it under
   the terms of the GNU Lesser General Public License as published by
   the Free Software Foundation, either version 3 of the License, or
   (at your option) any later version.
   
   xtb is distributed in the hope that it will be useful,
   but WITHOUT ANY WARRANTY; without even the implied warranty of
   MERCHANTABILITY or FITNESS FOR A PARTICULAR PURPOSE.  See the
   GNU Lesser General Public License for more details.
   
   Cite this work as:
   * C. Bannwarth, E. Caldeweyher, S. Ehlert, A. Hansen, P. Pracht,
     J. Seibert, S. Spicher, S. Grimme, WIREs Comput. Mol. Sci., 2020, 11,
     e01493. DOI: 10.1002/wcms.1493
   
   for g-xTB:
   * T. Froitzheim, M. Müller, A. Hansen, S. Grimme, ChemRxiv, 2025, preprint.
     DOI: 10.26434/chemrxiv-2025-bjxv
   for GFN2-xTB:
   * C. Bannwarth, S. Ehlert and S. Grimme., J. Chem. Theory Comput., 2019,
     15, 1652-1671. DOI: 10.1021/acs.jctc.8b01176
   for GFN1-xTB:
   * S. Grimme, C. Bannwarth, P. Shushkov, J. Chem. Theory Comput., 2017,
     13, 1989-2009. DOI: 10.1021/acs.jctc.7b00118
   for GFN0-xTB:
   * P. Pracht, E. Caldeweyher, S. Ehlert, S. Grimme, ChemRxiv, 2019, preprint.
     DOI: 10.26434/chemrxiv.8326202.v1
   for GFN-FF:
   * S. Spicher and S. Grimme, Angew. Chem. Int. Ed., 2020, 59, 15665-15673.
     DOI: 10.1002/anie.202004239
   
   for ALPB and GBSA implicit solvation:
   * S. Ehlert, M. Stahn, S. Spicher, S. Grimme, J. Chem. Theory Comput.,
     2021, 17, 4250-4261. DOI: 10.1021/acs.jctc.1c00471
   
   for ddCOSMO and CPCM-X implicit solvation:
   * M. Stahn, S. Ehlert, S. Grimme, J. Phys. Chem. A,
     2023, XX, XXXX-XXXX. DOI: 10.1021/acs.jpca.3c04382
   
   for DFT-D4:
   * E. Caldeweyher, C. Bannwarth and S. Grimme, J. Chem. Phys., 2017,
     147, 034112. DOI: 10.1063/1.4993215
   * E. Caldeweyher, S. Ehlert, A. Hansen, H. Neugebauer, S. Spicher,
     C. Bannwarth and S. Grimme, J. Chem. Phys., 2019, 150, 154122.
     DOI: 10.1063/1.5090222
   * E. Caldeweyher, J.-M. Mewes, S. Ehlert and S. Grimme, Phys. Chem. Chem. Phys.
     2020, 22, 8499-8512. DOI: 10.1039/D0CP00502A
   
   for sTDA-xTB:
   * S. Grimme and C. Bannwarth, J. Chem. Phys., 2016, 145, 054103.
     DOI: 10.1063/1.4959605
   
   in the mass-spec context:
   * V. Asgeirsson, C. Bauer and S. Grimme, Chem. Sci., 2017, 8, 4879.
     DOI: 10.1039/c7sc00601b
   * J. Koopman and S. Grimme, ACS Omega 2019, 4, 12, 15120-15133.
     DOI: 10.1021/acsomega.9b02011
   
   for metadynamics refer to:
   * S. Grimme, J. Chem. Theory Comput., 2019, 155, 2847-2862
     DOI: 10.1021/acs.jctc.9b00143
   
   for SPH calculations refer to:
   * S. Spicher and S. Grimme, J. Chem. Theory Comput., 2021, 17, 1701-1714
     DOI: 10.1021/acs.jctc.0c01306
   
   for ONIOM refer to:
   * C. Plett, A. Katbashev, S. Ehlert, S. Grimme, M. Bursch,
     Phys. Chem. Chem. Phys., 2023, 25, 17860-17868. DOI: 10.1039/D3CP02178E
   
   for DIPRO refer to:
   * J. Kohn, N. Gildemeister, S. Grimme, D. Fazzi, A. Hansen,
     J. Chem. Phys. 159, 144106 (2023). DOI: 10.1063/5.0167484
   
   for PTB refer to:
   * S. Grimme, M. Mueller, A. Hansen, J. Chem. Phys., 2023, 158, 124111.
     DOI: 10.1063/5.0137838
   
   with help from (in alphabetical order)
   P. Atkinson, C. Bannwarth, F. Bohle, G. Brandenburg, E. Caldeweyher,
   M. Checinski, S. Dohm, S. Ehlert, S. Ehrlich, M. Friede, T. Froitzheim,
   I. Gerasimov, C. Hölzer, A. Katbashev, J. Kohn, J. Koopman, C. Lavigne,
   S. Lehtola, F. März, M. Müller, F. Musil, H. Neugebauer, J. Pisarek,
   C. Plett, P. Pracht, F. Pultar, J. Seibert, P. Shushkov, S. Spicher,
   M. Stahn, M. Steiner, T. Strunk, J. Stückrath, T. Rose, and J. Unsleber
   
 * started run on 2026/05/23 at 12:40:50.182     
   ID    Z sym.   atoms
    1    7 N      1, 5, 10, 17, 27, 34, 39, 43, 54, 56, 57
    2    6 C      2, 3, 6-8, 11-14, 16, 18, 21-23, 28-31, 33, 35-38, 40,
                  44-48, 50-53, 55, 58
    3    8 O      4, 9, 15, 19, 20, 24-26, 32, 41, 49
    4   16 S      42
    5    1 H      59-117

           -------------------------------------------------
          |                Calculation Setup                |
           -------------------------------------------------

          program call               : /home/xchen/software/xtb-6.7.1-gxtb/bin/xtb /home/xchen/Test/benchmark/md_sampled/04_7_0231_n2/snap_0061.xyz --charge -2 --gxtb --norestart
          coordinate file            : /home/xchen/Test/benchmark/md_sampled/04_7_0231_n2/snap_0061.xyz
          omp threads                :                    48

core increment energy         -2.9312527735450E+03 Eh
dispersion energy              2.5349428385335E-02 Eh
molecular charge              -2.0000000000000E+00 e
number of electrons            3.2799999999710E+02 e
number of unpaired electrons   0.0000000000000E+00 e
wavefunction                   restricted
integral cutoff                2.6907767250513E+01 bohr
energy convergence             1.0000000000000E-06 Eh
density convergence            2.0000000000000E-05 e

------------------------------------------------------------
  cycle        total energy    energy error   density error
------------------------------------------------------------
      1     -3195.866410599  -2.6463899E+02   0.0000000E+00
      2     -3196.357095829  -4.9068523E-01   1.9917669E-02
      3     -3196.672122578  -3.1502675E-01   1.5712364E-02
      4     -3197.340376145  -6.6825357E-01   1.2442879E-02
      5     -3197.350565872  -1.0189727E-02   9.0009129E-04
      6     -3197.351395246  -8.2937407E-04   1.9130390E-04
      7     -3197.351464044  -6.8797978E-05   5.3602881E-05
      8     -3197.351469329  -5.2847770E-06   1.4906610E-05
      9     -3197.351469958  -6.2890297E-07   2.9912720E-06
------------------------------------------------------------

electronic energy             -2.6612404584105E+02 Eh
total energy                  -3.1973514699577E+03 Eh

Post processing:
 | Mayer-Wiberg bond orders
 | Molecular Multipole Moments

 total:                                  23.632 sec
 - increment                              0.000 sec (  0%)
 - repulsion                              0.022 sec (  0%)
 - dispersion                             0.628 sec (  2%)
 - coulomb                                0.316 sec (  1%)
 - exchange                               0.010 sec (  0%)
 - hamiltonian                            3.380 sec ( 14%)
 - acp                                    0.391 sec (  1%)
 - spin polarization                      0.000 sec (  0%)
 - post processing                        0.978 sec (  4%)
 - scc                                   17.508 sec ( 74%)
 - coulomb gradient                       0.080 sec (  0%)
 - dispersion gradient                    0.061 sec (  0%)
 - exchange gradient                      0.130 sec (  0%)
 - repulsion gradient                     0.021 sec (  0%)
 - acp gradient                           0.415 sec (  1%)
 - hamiltonian gradient                   0.639 sec (  2%)
 - gradient                               1.346 sec (  5%)

         :::::::::::::::::::::::::::::::::::::::::::::::::::::
         ::                     SUMMARY                     ::
         :::::::::::::::::::::::::::::::::::::::::::::::::::::
         :: total energy           -3197.351469957667 Eh    ::
         :: gradient norm              0.437136468233 Eh/a0 ::
         :: HOMO-LUMO gap              5.913226608902 eV    ::
         ::.................................................::
         :: add. restraining           0.000000000000 Eh    ::
         :: total charge              -2.000000000000 e     ::
         :::::::::::::::::::::::::::::::::::::::::::::::::::::

           -------------------------------------------------
          |                Property Printout                |
           -------------------------------------------------

    * Orbital Energies and Occupations
------------------------------------------------------------------
      #    Occupation            Energy/Eh            Energy/eV
------------------------------------------------------------------
      1        2.0000           -1.2144392             -33.0466
    ...           ...                  ...                  ...
    152        2.0000           -0.2037339              -5.5439
    153        2.0000           -0.1994795              -5.4281
    154        2.0000           -0.1945190              -5.2931
    155        2.0000           -0.1878639              -5.1120
    156        2.0000           -0.1825390              -4.9671
    157        2.0000           -0.1798450              -4.8938
    158        2.0000           -0.1713390              -4.6624
    159        2.0000           -0.1652853              -4.4976
    160        2.0000           -0.1576122              -4.2888
    161        2.0000           -0.1448857              -3.9425
    162        2.0000           -0.1272332              -3.4622
    163        2.0000           -0.1091679              -2.9706
    164        2.0000           -0.0957484              -2.6054 (HOMO)
    165                          0.1215587               3.3078 (LUMO)
    166                          0.1460333               3.9738
    167                          0.1570154               4.2726
    168                          0.1703919               4.6366
    169                          0.1744061               4.7458
    170                          0.1844921               5.0203
    171                          0.1865764               5.0770
    172                          0.1952499               5.3130
    173                          0.2177384               5.9250
    174                          0.2231842               6.0732
    175                          0.2262734               6.1572
    ...                                ...                  ...
    296                          0.9860089              26.8307
------------------------------------------------------------------
               HL-Gap            0.2173071 Eh            5.9132 eV
------------------------------------------------------------------

Atomic charges and shell populations (in atomic units):
-----------------------------------------------------------------
     #    Z                q          p(s)       p(p)       p(d)
-----------------------------------------------------------------
     1    7 N      -0.324964      1.356048   3.968916
     2    6 C       0.017727      1.120604   2.861669
     3    6 C       0.439876      1.100177   2.459947
     4    8 O      -0.536389      1.857400   4.678989
     5    7 N      -0.328472      1.381564   3.946908
     6    6 C      -0.000770      1.107003   2.893767
     7    6 C       0.440463      1.114564   2.444974
     8    6 C      -0.010189      1.154472   2.855717
     9    8 O      -0.536765      1.855266   4.681499
    10    7 N      -0.300976      1.374476   3.926499
    11    6 C      -0.162874      1.151986   3.010888
    12    6 C       0.412121      1.108391   2.479487
    13    6 C      -0.223544      1.159378   3.064166
    14    6 C       0.002845      1.116193   2.880962
    15    8 O      -0.623284      1.863219   4.760065
    16    6 C       0.515428      1.071366   2.413206
    17    7 N      -0.510862      1.494426   4.016436
    18    6 C      -0.200741      1.171247   3.029494
    19    8 O      -0.698759      1.852835   4.845924
    20    8 O      -0.713447      1.852059   4.861388
    21    6 C       0.370338      1.096268   2.533394
    22    6 C       0.525513      1.086971   2.387516
    23    6 C       0.040093      1.131643   2.828264
    24    8 O      -0.685269      1.862070   4.823200
    25    8 O      -0.550109      1.850334   4.699775
    26    8 O      -0.576710      1.805639   4.771071
    27    7 N      -0.323452      1.366124   3.957328
    28    6 C      -0.172442      1.159943   3.012500
    29    6 C       0.396308      1.082561   2.521130
    30    6 C      -0.189199      1.147361   3.041838
    31    6 C       0.008221      1.117552   2.874227
    32    8 O      -0.560278      1.851349   4.708929
    33    6 C      -0.205279      1.142145   3.063135
    34    7 N      -0.353144      1.373867   3.979277
    35    6 C      -0.182612      1.141682   3.040930
    36    6 C      -0.098018      1.137322   2.960697
    37    6 C       0.442931      1.084387   2.472681
    38    6 C      -0.138022      1.175061   2.962961
    39    7 N      -0.519888      1.474067   4.045821
    40    6 C       0.015737      1.133141   2.851122
    41    8 O      -0.510494      1.845586   4.664908
    42   16 S      -0.213087      1.875307   4.252564   0.085216
    43    7 N      -0.374602      1.372198   4.002405
    44    6 C      -0.119359      1.110132   3.009227
    45    6 C      -0.206842      1.178947   3.027896
    46    6 C       0.393598      1.121746   2.484656
    47    6 C      -0.211846      1.174340   3.037506
    48    6 C      -0.203067      1.163678   3.039389
    49    8 O      -0.518449      1.858560   4.659889
    50    6 C      -0.262140      1.185612   3.076528
    51    6 C      -0.171601      1.171463   3.000137
    52    6 C      -0.193292      1.177299   3.015993
    53    6 C      -0.071607      1.126878   2.944729
    54    7 N      -0.381229      1.341858   4.039371
    55    6 C       0.282054      1.085785   2.632161
    56    7 N      -0.549877      1.591432   3.958445
    57    7 N      -0.499769      1.371804   4.127965
    58    6 C      -0.275358      1.174199   3.101158
    59    1 H       0.255616      0.744384
    60    1 H       0.090951      0.909049
    61    1 H       0.297087      0.702913
    62    1 H       0.114738      0.885262
    63    1 H       0.112098      0.887902
    64    1 H       0.288689      0.711311
    65    1 H       0.117936      0.882064
    66    1 H       0.121097      0.878903
    67    1 H       0.126327      0.873673
    68    1 H       0.048746      0.951254
    69    1 H       0.110245      0.889755
    70    1 H       0.389809      0.610191
    71    1 H       0.117516      0.882484
    72    1 H       0.102351      0.897649
    73    1 H       0.099750      0.900250
    74    1 H       0.281112      0.718888
    75    1 H       0.087282      0.912718
    76    1 H       0.132426      0.867574
    77    1 H       0.110708      0.889292
    78    1 H       0.084000      0.916000
    79    1 H       0.125407      0.874593
    80    1 H       0.120735      0.879265
    81    1 H       0.086891      0.913109
    82    1 H       0.266093      0.733907
    83    1 H       0.103289      0.896711
    84    1 H       0.124233      0.875767
    85    1 H       0.084622      0.915378
    86    1 H       0.082301      0.917699
    87    1 H       0.100062      0.899938
    88    1 H       0.103652      0.896348
    89    1 H       0.240525      0.759475
    90    1 H       0.210095      0.789905
    91    1 H       0.114919      0.885081
    92    1 H       0.242014      0.757986
    93    1 H       0.097644      0.902356
    94    1 H       0.119608      0.880392
    95    1 H       0.114902      0.885098
    96    1 H       0.091159      0.908841
    97    1 H       0.084298      0.915702
    98    1 H       0.075622      0.924378
    99    1 H       0.070166      0.929834
   100    1 H       0.083075      0.916925
   101    1 H       0.099132      0.900868
   102    1 H       0.075606      0.924394
   103    1 H       0.102646      0.897354
   104    1 H       0.117253      0.882747
   105    1 H       0.124079      0.875921
   106    1 H       0.091907      0.908093
   107    1 H       0.099135      0.900865
   108    1 H       0.109667      0.890333
   109    1 H       0.095982      0.904018
   110    1 H       0.102241      0.897759
   111    1 H       0.268844      0.731156
   112    1 H       0.202841      0.797159
   113    1 H       0.247261      0.752739
   114    1 H       0.252048      0.747952
   115    1 H       0.156194      0.843806
   116    1 H       0.075825      0.924175
   117    1 H       0.135370      0.864630
-----------------------------------------------------------------


Wiberg/Mayer (AO) data.
largest (>0.10) Wiberg bond orders for each atom

 ---------------------------------------------------------------------------
     #   Z sym  total        # sym  WBO       # sym  WBO       # sym  WBO
 ---------------------------------------------------------------------------
     1   7 N    3.313 --     7 C    1.183     2 C    0.984    59 N    0.897
                             9 C    0.153
     2   6 C    3.949 --    51 C    0.995     1 N    0.984    60 N    0.931
                             3 C    0.919
     3   6 C    3.865 --     4 C    1.663     5 N    1.197     2 C    0.919
     4   8 C    1.934 --     3 C    1.663     5 N    0.150
     5   7 N    3.298 --     3 C    1.197     6 C    0.998    61 N    0.864
                             4 C    0.150
     6   6 C    3.949 --     5 N    0.998    58 C    0.967    46 C    0.958
                            62 N    0.924
     7   6 C    3.841 --     9 C    1.649     1 N    1.183     8 C    0.923
     8   6 C    3.911 --    10 N    0.954    11 C    0.949    63 N    0.946
                             7 C    0.923
     9   8 C    1.962 --     7 C    1.649     1 N    0.153
    10   7 N    3.365 --    12 C    1.289     8 C    0.954    64 N    0.872
                            15 C    0.150
    11   6 C    3.944 --    13 C    1.022    66 N    0.951     8 C    0.949
                            65 N    0.948
    12   6 C    3.861 --    15 C    1.557    10 N    1.289    14 C    0.923
    13   6 C    3.956 --    11 C    1.022    68 N    0.958    67 N    0.956
                            16 C    0.897
    14   6 C    3.959 --    17 N    1.035    18 C    0.964    69 N    0.924
                            12 C    0.923
    15   8 C    1.821 --    12 C    1.557    10 N    0.150
    16   6 C    3.866 --    19 C    1.479    20 C    1.464    13 C    0.897
    17   7 N    3.053 --    21 C    1.402    14 C    1.035    70 N    0.256
                            24 C    0.180
    18   6 C    3.960 --    14 C    0.964    72 N    0.962    71 N    0.945
                            22 C    0.943
    19   8 C    1.755 --    16 C    1.479    20 C    0.196
    20   8 C    1.736 --    16 C    1.464    19 C    0.196
    21   6 C    3.907 --    24 C    1.448    17 N    1.402    23 C    0.979
    22   6 C    3.827 --    25 C    1.697    26 C    1.157    18 C    0.943
    23   6 C    3.912 --    21 C    0.979    28 C    0.957    73 N    0.933
                            27 N    0.933
    24   8 C    1.754 --    21 C    1.448    17 N    0.180
    25   8 C    1.953 --    22 C    1.697    26 C    0.162
    26   8 C    2.031 --    22 C    1.157    70 N    0.574    25 C    0.162
    27   7 N    3.390 --    29 C    1.296    23 C    0.933    74 N    0.880
                            32 C    0.184
    28   6 C    3.950 --    30 C    1.011    23 C    0.957    75 N    0.957
                            76 N    0.933
    29   6 C    3.900 --    32 C    1.604    27 N    1.296    31 C    0.941
    30   6 C    3.962 --    28 C    1.011    33 C    1.002    78 N    0.953
                            77 N    0.947
    31   6 C    3.931 --    35 C    0.988    34 N    0.945    29 C    0.941
                            79 N    0.928
    32   8 C    1.908 --    29 C    1.604    27 N    0.184
    33   6 C    3.967 --    36 C    1.011    30 C    1.002    81 N    0.962
                            80 N    0.953
    34   7 N    3.303 --    37 C    1.196    31 C    0.945    82 N    0.890
                            41 C    0.166
    35   6 C    3.961 --    38 C    1.007    31 C    0.988    83 N    0.957
                            84 N    0.946
    36   6 C    3.956 --    33 C    1.011    39 N    1.005    86 N    0.962
                            85 N    0.961
    37   6 C    3.876 --    41 C    1.702    34 N    1.196    40 C    0.908
    38   6 C    3.942 --    35 C    1.007    42 O    0.987    88 N    0.960
                            87 N    0.948
    39   7 N    2.943 --    36 C    1.005    90 N    0.942    89 N    0.925
    40   6 C    3.931 --    44 C    0.985    43 N    0.954    91 N    0.936
                            37 C    0.908
    41   8 C    1.992 --    37 C    1.702    34 N    0.166
    42  16 O    2.115 --    45 C    1.021    38 C    0.987
    43   7 N    3.261 --    46 C    1.159    40 C    0.954    92 N    0.898
                            49 C    0.146
    44   6 C    3.981 --    47 C    1.019    48 C    0.999    40 C    0.985
                            93 N    0.930
    45   6 C    3.924 --    42 O    1.021    96 N    0.963    94 N    0.962
                            95 N    0.945
    46   6 C    3.861 --    49 C    1.672    43 N    1.159     6 C    0.958
    47   6 C    3.960 --    44 C    1.019    98 N    0.970    97 N    0.968
                            99 N    0.967
    48   6 C    3.961 --    50 C    1.000    44 C    0.999   100 N    0.962
                           101 N    0.956
    49   8 C    1.960 --    46 C    1.672    43 N    0.146
    50   6 C    3.947 --    48 C    1.000   102 N    0.974   103 N    0.974
                           104 N    0.964
    51   6 C    3.954 --     2 C    0.995    52 C    0.980   105 N    0.955
                           106 N    0.954
    52   6 C    3.952 --    53 C    1.003    51 C    0.980   107 N    0.962
                           108 N    0.960
    53   6 C    3.927 --    52 C    1.003    54 N    0.984   110 N    0.948
                           109 N    0.947
    54   7 N    3.252 --    55 C    1.151    53 C    0.984   111 N    0.886
                            56 N    0.138
    55   6 C    3.942 --    56 N    1.697    54 N    1.151    57 N    1.059
    56   7 N    2.871 --    55 C    1.697   112 N    0.916    54 N    0.138
    57   7 N    3.026 --    55 C    1.059   114 N    0.917   113 N    0.912
    58   6 C    3.935 --   116 N    0.973     6 C    0.967   117 N    0.966
                           115 N    0.957
    59   1 N    0.935 --     1 N    0.897
    60   1 N    0.992 --     2 C    0.931
    61   1 N    0.912 --     5 N    0.864
    62   1 N    0.987 --     6 C    0.924
    63   1 N    0.987 --     8 C    0.946
    64   1 N    0.917 --    10 N    0.872
    65   1 N    0.986 --    11 C    0.948
    66   1 N    0.985 --    11 C    0.951
    67   1 N    0.984 --    13 C    0.956
    68   1 N    0.998 --    13 C    0.958
    69   1 N    0.988 --    14 C    0.924
    70   1 N    0.848 --    26 C    0.574    17 N    0.256
    71   1 N    0.986 --    18 C    0.945
    72   1 N    0.990 --    18 C    0.962
    73   1 N    0.990 --    23 C    0.933
    74   1 N    0.921 --    27 N    0.880
    75   1 N    0.992 --    28 C    0.957
    76   1 N    0.982 --    28 C    0.933
    77   1 N    0.988 --    30 C    0.947
    78   1 N    0.993 --    30 C    0.953
    79   1 N    0.984 --    31 C    0.928
    80   1 N    0.985 --    33 C    0.953
    81   1 N    0.992 --    33 C    0.962
    82   1 N    0.929 --    34 N    0.890
    83   1 N    0.989 --    35 C    0.957
    84   1 N    0.985 --    35 C    0.946
    85   1 N    0.993 --    36 C    0.961
    86   1 N    0.993 --    36 C    0.962
    87   1 N    0.990 --    38 C    0.948
    88   1 N    0.989 --    38 C    0.960
    89   1 N    0.942 --    39 N    0.925
    90   1 N    0.956 --    39 N    0.942
    91   1 N    0.987 --    40 C    0.936
    92   1 N    0.941 --    43 N    0.898
    93   1 N    0.990 --    44 C    0.930
    94   1 N    0.986 --    45 C    0.962
    95   1 N    0.987 --    45 C    0.945
    96   1 N    0.992 --    45 C    0.963
    97   1 N    0.993 --    47 C    0.968
    98   1 N    0.994 --    47 C    0.970
    99   1 N    0.995 --    47 C    0.967
   100   1 N    0.993 --    48 C    0.962
   101   1 N    0.990 --    48 C    0.956
   102   1 N    0.994 --    50 C    0.974
   103   1 N    0.989 --    50 C    0.974
   104   1 N    0.986 --    50 C    0.964
   105   1 N    0.985 --    51 C    0.955
   106   1 N    0.992 --    51 C    0.954
   107   1 N    0.990 --    52 C    0.962
   108   1 N    0.988 --    52 C    0.960
   109   1 N    0.991 --    53 C    0.947
   110   1 N    0.990 --    53 C    0.948
   111   1 N    0.928 --    54 N    0.886
   112   1 N    0.959 --    56 N    0.916
   113   1 N    0.939 --    57 N    0.912
   114   1 N    0.936 --    57 N    0.917
   115   1 N    0.976 --    58 C    0.957
   116   1 N    0.994 --    58 C    0.973
   117   1 N    0.982 --    58 C    0.966
 ---------------------------------------------------------------------------

Topologies differ in total number of bonds
Writing topology from bond orders to xtbtopo.mol

Atomic dipole moments (in atomic units):
---------------------------------------------------------
     #    Z                 x            y            z
---------------------------------------------------------
           total     1.406699    14.039794     1.896243
---------------------------------------------------------
         |total|    14.236936    36.186682 Debye


           -------------------------------------------------
          | TOTAL ENERGY            -3197.351469957667 Eh   |
          | GRADIENT NORM               0.437136468233 Eh/α |
           -------------------------------------------------

------------------------------------------------------------------------
 * finished run on 2026/05/23 at 12:41:16.604     
------------------------------------------------------------------------
 total:
 * wall-time:     0 d,  0 h,  0 min, 26.421 sec
 *  cpu-time:     0 d,  0 h,  0 min, 37.318 sec
 * ratio c/w:     1.412 speedup
 SCF:
 * wall-time:     0 d,  0 h,  0 min, 25.525 sec
 *  cpu-time:     0 d,  0 h,  0 min, 36.633 sec
 * ratio c/w:     1.435 speedup

normal termination of xtb
