70
pH=7.79 total_charge=-1 partial_charge_sum=-1.000000 method=gasteiger energy=-375.04533900
N  -0.33044055 -2.82906442 -1.46678088
C   1.09240184 -2.58258505 -1.58647151
C   1.62335282 -1.16487810 -1.14241838
O   2.11287480 -0.38389390 -1.92764714
N   1.80630869 -1.03837463  0.23400461
C   2.41894674  0.09386001  0.90454249
C  -1.16392698 -2.29385609 -2.51154558
C  -2.58909394 -2.85532878 -2.57739871
O  -0.74636174 -1.42414278 -3.18874285
N  -3.46080326 -1.73924268 -2.52508656
C  -2.78392816 -3.62740603 -3.94542375
C  -4.58513265 -1.71384446 -1.64744212
C  -1.74412012 -4.78911414 -3.91991667
C  -5.24040813 -0.37280186 -1.70189716
O  -4.91238944 -2.48630811 -0.78909976
C  -2.36851142 -5.98819977 -4.79559968
N  -4.59977362  0.35520903 -0.59138082
O  -1.65260231 -6.29595587 -5.76421906
O  -3.44629369 -6.49317151 -4.37275858
C  -4.57086427  1.69726281 -0.36852686
C  -3.63265911  2.00042355  0.81661868
O  -5.20820885  2.49929201 -0.98782546
N  -2.41641857  2.60657810  0.29004048
C  -4.24039155  2.76904531  1.96073688
C  -1.27736206  1.88179710  0.19187187
C  -0.09282232  2.71060476 -0.26025891
O  -1.31441341  0.69983000  0.38860751
N   1.13593905  1.92447940 -0.25885230
C   1.57609016  1.41490510  1.04976605
O   1.22288549  1.85743415  2.09035974
C   3.78219153  0.63298141  0.60279192
C   4.19538145  1.72426201  1.47424160
C   4.04561812  3.09403080  1.38717511
C   5.11660821  1.45921124  2.51427974
N   4.67790499  3.68484279  2.49174475
C   5.33440122  2.65317892  3.14610766
C   5.49381132  0.27209913  3.12760446
C   5.91387984  2.68634607  4.39348046
C   6.00377370  0.25227222  4.36890633
C   6.33023181  1.45210409  4.92486519
H  -0.60461426 -3.66658952 -1.00078867
H   1.34263201 -2.76592631 -2.62855776
H   1.70746259 -3.17125788 -0.92361532
H   1.27796626 -1.51134953  0.87327393
H   2.45784704 -0.20463802  1.95739531
H  -2.81792712 -3.48812867 -1.67548483
H  -3.44934139 -1.13607141 -3.33166063
H  -2.78454927 -2.93325690 -4.72319284
H  -3.84021249 -3.87085627 -3.84119210
H  -1.70902494 -5.20877207 -2.87435442
H  -0.87275323 -4.55735856 -4.41554443
H  -6.30496952 -0.38444573 -1.43742688
H  -5.04933106  0.37579650 -2.57868352
H  -3.84509474 -0.15884907 -0.10690235
H  -3.36260860  1.06155051  1.39724033
H  -2.30025145  3.62111924  0.21689542
H  -3.34418172  3.10861427  2.51603515
H  -4.83254900  2.14051193  2.63816106
H  -4.79535177  3.71751525  1.77679871
H  -0.27007259  3.07709238 -1.19775507
H  -0.04138415  3.61052694  0.40717839
H   1.17639040  1.18079836 -0.89095014
H   4.60168494 -0.14015567  0.64127946
H   3.88673338  0.97562863 -0.44739185
H   3.56502031  3.64464685  0.56608772
H   4.53376239  4.59553758  2.80753294
H   5.30559512 -0.58683234  2.55241252
H   6.06276919  3.61301217  5.06300951
H   6.36741077 -0.71605344  4.70037279
H   6.94937462  1.35935039  5.84120644
