70
pH=7.79 total_charge=-1 partial_charge_sum=-1.000000 method=gasteiger energy=-374.82268275
N   0.18643181 -2.54541068 -1.77123862
C   1.50480875 -2.28073803 -2.25471396
C   2.09546784 -0.94934655 -1.59008607
O   2.79135169 -0.17599508 -2.24443440
N   1.84653834 -0.77991848 -0.16971443
C   2.14992367  0.30357420  0.68131079
C  -0.86690055 -1.79373360 -2.20387849
C  -2.16894687 -2.52134560 -2.07156649
O  -0.72781682 -0.69191777 -2.71144676
N  -3.26811700 -1.59024265 -2.14074953
C  -2.33917379 -3.56265756 -3.35768969
C  -4.48543410 -1.74843031 -1.52816505
C  -1.34588998 -4.72333335 -3.31206789
C  -5.43689638 -0.55554339 -1.65632954
O  -4.90752376 -2.60648538 -0.82142538
C  -1.46941129 -5.88178081 -4.19581063
N  -4.82410565  0.33988461 -0.52555301
O  -0.37465365 -6.21124314 -4.78494499
O  -2.58616864 -6.40218908 -4.26509288
C  -5.03713292  1.59674191 -0.35958555
C  -4.16769009  2.48059191  0.62848223
O  -5.96349860  2.10273342 -0.99193211
N  -2.89327005  2.70311932 -0.04973896
C  -4.84085329  3.84113286  0.71905364
C  -1.70233903  2.04989340  0.16892293
C  -0.58848566  2.58293798 -0.72479443
O  -1.61865848  1.12649310  0.97792953
N   0.50154066  1.62346743 -0.57190193
C   1.19808217  1.47209298  0.58491156
O   1.21804716  2.43058462  1.32772448
C   3.55146530  0.87974457  0.30409982
C   4.33522900  1.54906616  1.46024335
C   4.74057732  2.84412284  1.51213781
C   4.84633320  0.85077203  2.62360104
N   5.41491844  3.08775483  2.69310658
C   5.41141518  1.88118668  3.36154837
C   4.61770682 -0.45368316  3.10160397
C   5.85778011  1.59694319  4.67680406
C   4.96234203 -0.67570928  4.46674402
C   5.64178450  0.33074649  5.15556004
H  -0.09214327 -3.45694568 -1.94479286
H   1.53141236 -2.12453334 -3.40312405
H   1.95699868 -3.22354547 -1.85691229
H   1.29103867 -1.48012211  0.18793755
H   2.18053430 -0.03870985  1.81596666
H  -2.28273927 -3.11928381 -1.12971328
H  -3.24433229 -0.87188860 -2.78583311
H  -2.33364606 -3.02004995 -4.28877646
H  -3.21284918 -4.13939118 -3.15310744
H  -1.37581067 -5.18767041 -2.33219385
H  -0.36992684 -4.40447812 -3.46854297
H  -6.54100703 -0.83668032 -1.40218354
H  -5.30309919  0.01956707 -2.54476257
H  -3.93939608 -0.07726487 -0.23865494
H  -4.08055450  2.01267143  1.61717949
H  -2.93450855  3.49058516 -0.78470153
H  -4.25908466  4.36838707  1.56860232
H  -5.90438541  3.76856929  0.77753234
H  -4.60134182  4.41830510 -0.12698170
H  -0.95555061  2.47789373 -1.82632221
H  -0.32580822  3.59874467 -0.53228969
H   0.39382875  0.82583650 -1.12128852
H   4.27989783  0.16171313 -0.19872958
H   3.56952230  1.62235858 -0.56691313
H   4.63273207  3.53653241  0.64944110
H   5.23939133  3.91790119  3.26234922
H   3.93424085 -1.14937529  2.55221830
H   6.49824778  2.33256284  5.19668053
H   4.77125913 -1.58748136  4.92936323
H   6.13913773  0.16131285  6.18341658
