70
pH=7.79 total_charge=-1 partial_charge_sum=-1.000000 method=gasteiger energy=-375.38127650
N  -0.29623117 -2.86068381 -1.15342153
C   1.06689692 -2.67410244 -1.45026599
C   1.75818840 -1.38354340 -1.07119031
O   2.05022865 -0.50068713 -1.89333084
N   2.00737529 -1.19045671  0.26521674
C   2.51733595 -0.01908500  0.93235451
C  -1.15245152 -2.44002804 -2.14041043
C  -2.55949246 -2.84740884 -2.15164166
O  -0.77677908 -1.64116890 -2.97170238
N  -3.21855322 -1.54917180 -1.99007315
C  -2.87479636 -3.64012582 -3.44290890
C  -4.54536568 -1.53390155 -1.75810019
C  -2.25296651 -5.02595755 -3.34162599
C  -5.18913351 -0.21099721 -1.53256197
O  -5.24038966 -2.58389209 -1.55193469
C  -2.69527039 -5.81022743 -4.65682101
N  -4.62521171  0.37493521 -0.30937720
O  -1.97479009 -5.76054165 -5.67142820
O  -3.77925854 -6.40982052 -4.51223790
C  -4.22680280  1.66484338 -0.41162281
C  -3.61875002  2.11531484  0.84332355
O  -4.42848200  2.46499613 -1.34739976
N  -2.33534192  2.72566186  0.61204309
C  -4.43370130  3.12146637  1.58618942
C  -1.26969710  2.03299313  0.21189824
C   0.00104343  2.70143639  0.31585312
O  -1.45359054  0.89186959 -0.21946060
N   1.01656893  1.74761527  0.03454213
C   1.41658638  0.95139580  1.07042875
O   0.81901947  1.12005257  2.15280939
C   3.87024510  0.56171294  0.33463423
C   4.50464623  1.67667002  1.17357896
C   4.33257932  3.04157708  0.89648418
C   5.22825487  1.53205741  2.36622930
N   4.90323079  3.70941908  1.91763680
C   5.44267807  2.83258892  2.86592127
C   5.65494009  0.44411583  3.26090778
C   5.85741163  3.07656714  4.18067590
C   6.07868491  0.73847630  4.50136987
C   6.27699031  2.01143977  4.98270875
H  -0.55751785 -3.65125165 -0.51712956
H   1.06475787 -2.49450087 -2.51830612
H   1.64078238 -3.61717588 -1.16688349
H   1.66318488 -1.89090775  0.93088034
H   2.65759867 -0.38428146  2.01045445
H  -2.81060111 -3.44564012 -1.27653799
H  -2.69756407 -0.82154080 -2.48455059
H  -2.43812075 -3.31300409 -4.38131624
H  -3.97102668 -3.80512524 -3.65981948
H  -2.67902667 -5.37666333 -2.37535972
H  -1.16194885 -4.82703918 -3.34478681
H  -6.23904440 -0.43971383 -1.44586386
H  -5.08683273  0.54742425 -2.41363803
H  -4.50047220 -0.27007296  0.44931108
H  -3.52312216  1.17771615  1.48288634
H  -2.22768160  3.69420537  0.98124541
H  -3.98566430  3.24985649  2.55731998
H  -5.41989224  2.61194454  1.69927991
H  -4.65590575  4.08677442  1.04226947
H   0.02381661  3.55629683 -0.31239508
H   0.14931662  3.11910710  1.33228924
H   1.57675335  1.77566832 -0.81751837
H   4.51119094 -0.32745711  0.11192978
H   3.55618538  0.98116585 -0.60856010
H   3.86374265  3.57807326  0.03750500
H   4.67921394  4.62043692  2.25284012
H   5.45433419 -0.61509985  3.07133081
H   5.97766377  4.08335527  4.65541316
H   6.20063910 -0.11485594  5.18705852
H   6.40825012  2.14951664  6.11607872
