70
pH=7.79 total_charge=-1 partial_charge_sum=-1.000000 method=gasteiger energy=-375.24846400
N  -0.44308828 -2.60362090 -1.44441182
C   1.05952098 -2.50909527 -1.64514023
C   1.73352782 -1.19956717 -1.06271339
O   2.15225223 -0.32549258 -1.79957876
N   1.85325715 -0.99686661  0.26820698
C   2.38637436  0.23003087  0.84640034
C  -1.22087743 -2.00114719 -2.33822227
C  -2.52091480 -2.83551613 -2.59650969
O  -0.97536378 -0.94089128 -2.92294447
N  -3.60556053 -1.83324677 -2.69762023
C  -2.50955553 -3.84114274 -3.73983543
C  -4.51002819 -1.71984761 -1.66525069
C  -1.50576937 -5.05267477 -3.83908706
C  -5.35431517 -0.45005062 -1.50738490
O  -4.52898555 -2.56041268 -0.72854579
C  -2.17837623 -5.92944431 -4.99886880
N  -4.71126482  0.19785823 -0.36617661
O  -1.43133192 -6.11990940 -5.97114370
O  -3.29434199 -6.39061641 -4.74077316
C  -4.65459570  1.48251632 -0.16313107
C  -3.70838493  1.98057680  0.91267915
O  -5.32026160  2.29011589 -0.83374275
N  -2.56477915  2.54887593  0.21370058
C  -4.37824389  3.06872564  1.73881317
C  -1.36646519  1.84122351 -0.00878567
C  -0.16181913  2.71051993 -0.32429857
O  -1.30065588  0.66337178  0.09854426
N   1.10861364  1.98999735 -0.18446636
C   1.43514616  1.35461343  0.95019238
O   1.04538787  1.74339876  2.05786683
C   3.77881941  0.71263358  0.34337538
C   4.41632847  1.64439741  1.33613885
C   4.24367844  2.94325667  1.31102329
C   5.06675758  1.35844546  2.66316490
N   4.71265623  3.57820922  2.42328927
C   5.11410489  2.58018278  3.28878715
C   5.60823078  0.11571745  3.17591099
C   5.59223451  2.62711143  4.62433102
C   6.28949266  0.26881389  4.36020065
C   6.25594290  1.53971957  5.00679445
H  -0.77308491 -3.59421276 -1.37739399
H   1.34022567 -2.46322428 -2.71932763
H   1.56330867 -3.35301985 -1.17215095
H   1.12287590 -1.43036228  0.92114644
H   2.55305916 -0.07981327  1.89756452
H  -2.81161766 -3.48506517 -1.80563192
H  -3.49369450 -1.20208295 -3.46090865
H  -2.33221836 -3.19501418 -4.70732943
H  -3.43606633 -4.40332230 -3.77426066
H  -1.58722941 -5.53206298 -2.81860146
H  -0.41240940 -4.75247615 -4.15284178
H  -6.36091789 -0.75182684 -1.26710726
H  -5.38220823  0.18645545 -2.29830912
H  -4.06103593 -0.40236058  0.10837280
H  -3.35444908  1.15596875  1.46786913
H  -2.45160642  3.58206190  0.25127416
H  -3.85036473  3.29843315  2.69303106
H  -5.34895225  2.67582662  1.99887845
H  -4.63488752  3.91768230  1.26103126
H  -0.14242813  3.27047554 -1.36638386
H  -0.26475581  3.51977035  0.35510400
H   1.31831784  1.40208602 -1.02325267
H   4.24735282 -0.24250934  0.33714697
H   3.90184481  1.18724917 -0.64585522
H   3.58552964  3.64126506  0.72722268
H   4.23653785  4.35099373  2.79045369
H   5.43798843 -0.93268746  2.73350805
H   5.48151413  3.36268565  5.34563652
H   6.79951845 -0.54280507  4.88923092
H   6.65049049  1.53526866  6.04452259
