70
pH=7.79 total_charge=-1 partial_charge_sum=-1.000000 method=gasteiger energy=-374.98283900
N  -0.33544540 -2.52300102 -1.40137654
C   1.05881205 -2.34937331 -1.66791714
C   1.73539031 -1.14814049 -1.06947650
O   2.21458207 -0.31738346 -1.81320559
N   1.80055303 -1.09909047  0.31504586
C   2.41797504  0.16976865  0.89425583
C  -1.25804130 -2.02611091 -2.39261436
C  -2.52440369 -2.80265786 -2.60002973
O  -0.95388625 -0.89475640 -2.79161453
N  -3.61874762 -1.86494141 -2.68963829
C  -2.46588218 -3.83249804 -3.73311820
C  -4.40831996 -1.74912435 -1.64431957
C  -1.52331591 -5.04457742 -3.79754510
C  -5.31929086 -0.51793908 -1.52859367
O  -4.50283815 -2.60601105 -0.77984724
C  -2.11920773 -5.88785461 -4.95299873
N  -4.77446605  0.12545898 -0.32129815
O  -1.34520672 -6.02553576 -5.91312356
O  -3.21587339 -6.32449379 -4.72852808
C  -4.66329819  1.45115256 -0.18587079
C  -3.70534661  2.01506693  0.90961078
O  -5.33745370  2.25981166 -0.83760236
N  -2.52208866  2.64102139  0.23657821
C  -4.46586968  3.05841675  1.75627908
C  -1.46640471  1.85008184  0.00721661
C  -0.26046150  2.65758848 -0.30219151
O  -1.36950395  0.60893892  0.02525119
N   1.02119270  2.03715670 -0.29519346
C   1.40902903  1.41704171  0.92753611
O   0.93434655  1.64599029  2.05063922
C   3.86481717  0.53754136  0.30304519
C   4.46535285  1.54757929  1.26055554
C   4.16880389  2.94921038  1.25150447
C   5.04789326  1.34411677  2.56420640
N   4.63305699  3.56153535  2.44015830
C   5.17183475  2.57211037  3.26788550
C   5.56367150  0.22821989  3.16804483
C   5.58843854  2.63288407  4.61826101
C   6.31123004  0.31055414  4.36733311
C   6.27529839  1.48654166  5.15478284
H  -0.48054247 -3.50685976 -1.20941830
H   1.37972355 -2.33307609 -2.79233778
H   1.50977301 -3.32152658 -1.24858851
H   1.03023182 -1.49155208  0.85460819
H   2.50320573  0.04756030  1.97613824
H  -2.54778682 -3.23698629 -1.57043402
H  -3.64644119 -0.98728109 -3.20987611
H  -2.32494330 -3.34572186 -4.65791612
H  -3.55462771 -4.19351294 -3.84044691
H  -1.50918328 -5.77596410 -2.99277173
H  -0.52667580 -4.64178913 -4.08089258
H  -6.39281275 -0.76979764 -1.40030248
H  -5.03704570  0.11149063 -2.43408253
H  -4.15225320 -0.40119144  0.21471862
H  -3.27171770  1.15689846  1.54308601
H  -2.42226848  3.59421925  0.35576546
H  -3.80956799  3.46534311  2.46908347
H  -5.51563704  2.75073329  2.03382136
H  -4.55958992  3.92773731  1.03407771
H  -0.50168776  2.95638534 -1.28146035
H  -0.17060556  3.54116171  0.33346652
H   1.39937719  1.51799657 -1.02726618
H   4.53472567 -0.31295315  0.18108543
H   3.61456146  0.86071770 -0.65203905
H   3.81848962  3.41931949  0.40430752
H   4.33916048  4.50614257  2.78300572
H   5.67556278 -0.64189525  2.57735601
H   5.48088921  3.57961078  5.11537656
H   6.81939018 -0.55364227  4.77337699
H   6.81966769  1.54697302  6.11550044
