70
pH=7.79 total_charge=-1 partial_charge_sum=-1.000000 method=gasteiger energy=-375.60393275
N   0.11416070 -2.56906817 -1.96959515
C   1.53895959 -2.10536225 -2.42418174
C   2.06218224 -0.84593036 -1.67078724
O   2.83131473 -0.16927792 -2.26893935
N   1.71411219 -0.72420890 -0.39068737
C   2.08465939  0.32171928  0.55874785
C  -1.00718621 -1.78941091 -2.13624832
C  -2.21078772 -2.70508556 -2.08171528
O  -0.98420494 -0.65138419 -2.52559577
N  -3.35257271 -1.82455443 -1.89303110
C  -2.36460387 -3.65611732 -3.28486827
C  -4.54343991 -1.81893351 -1.22769019
C  -1.08763740 -4.54584192 -3.43634522
C  -5.47832426 -0.67153749 -1.40978177
O  -4.88398392 -2.67865146 -0.46162254
C  -1.33322243 -5.71361558 -4.48882495
N  -5.24434136  0.29559082 -0.30822513
O  -0.51860119 -5.75485986 -5.44959731
O  -2.31106177 -6.42774382 -4.23375897
C  -5.05798618  1.61551383 -0.40664983
C  -4.24044690  2.13858657  0.76189924
O  -5.52593238  2.30017677 -1.30549904
N  -3.09999647  2.51162434 -0.04426073
C  -4.80660734  3.30325246  1.55800238
C  -1.87445339  1.92295958  0.16548818
C  -0.65416682  2.57884444 -0.63406281
O  -1.75413290  0.91337420  0.78258675
N   0.33988799  1.62735184 -0.61041984
C   1.16891295  1.53069560  0.50421937
O   1.23522810  2.46820060  1.35740388
C   3.54691295  0.85316920  0.30187022
C   4.24765077  1.50475950  1.42979714
C   4.31548089  2.87079920  1.59917077
C   4.90062172  0.92551550  2.59540229
N   4.96276426  3.12304733  2.71504683
C   5.30261305  1.95979090  3.38181206
C   5.20867710 -0.41794724  3.06234667
C   6.02077782  1.87183375  4.58968069
C   5.86502724 -0.58203375  4.24494543
C   6.24160362  0.61624940  5.07528022
H  -0.08398441 -3.49738416 -1.71332541
H   1.45806898 -1.78057019 -3.47147227
H   2.32629065 -2.90107957 -2.31178828
H   0.89339995 -1.23252087 -0.19197793
H   2.01985197 -0.14356782  1.62490826
H  -2.22122727 -3.40060893 -1.25898082
H  -3.30893577 -1.04567000 -2.50672991
H  -2.37531414 -3.02363755 -4.15253771
H  -3.30656437 -4.06733142 -3.20208387
H  -0.98788128 -5.05659970 -2.38543104
H  -0.18074673 -3.91284321 -3.77896037
H  -6.50513938 -1.16112145 -1.41288466
H  -5.18721004 -0.31715087 -2.37620853
H  -4.79476187 -0.20122098  0.50894691
H  -3.93928812  1.35946513  1.44980833
H  -3.17125135  3.33365921 -0.62857531
H  -4.00372479  3.52710951  2.27318854
H  -5.72083920  3.21187211  2.15588338
H  -5.15593516  4.04701427  0.81062965
H  -0.93540462  2.79781600 -1.72397285
H  -0.32123586  3.47092087 -0.03339859
H   0.14642254  0.84317778 -1.18627370
H   4.02634864 -0.08979604  0.12056527
H   3.49822225  1.57646138 -0.54150298
H   3.95268013  3.69296033  0.99665815
H   5.24044807  4.05130063  2.98766451
H   5.07113396 -1.28134879  2.49510421
H   6.26384369  2.75010872  5.23865328
H   5.95397023 -1.60929946  4.74475505
H   6.71292520  0.39637753  5.98168174
