70
pH=7.79 total_charge=-1 partial_charge_sum=-1.000000 method=gasteiger energy=-375.29533900
N   0.14164222 -2.91171566 -1.76365340
C   1.42205785 -2.32485507 -2.14555834
C   2.15600214 -1.16027695 -1.44542384
O   2.98635890 -0.53366711 -2.05306736
N   1.88251439 -0.86272273 -0.12536394
C   2.34576641  0.26808627  0.55693879
C  -0.87606743 -2.01835997 -2.01651919
C  -2.31322163 -2.62484678 -2.22054944
O  -0.64405723 -0.77338416 -2.20214706
N  -3.23941823 -1.56254222 -1.94408824
C  -2.39326195 -3.45772822 -3.57546979
C  -4.54285796 -1.66542622 -1.53813646
C  -1.35218683 -4.61820312 -3.57031737
C  -5.40686494 -0.50463317 -1.06353514
O  -5.09612212 -2.79775166 -1.49718287
C  -1.45360986 -5.72694755 -4.65626167
N  -4.55690725  0.58695124 -0.55572007
O  -0.36143230 -6.25162270 -4.90353882
O  -2.63323237 -5.98542413 -5.05043106
C  -5.06373555  1.81257755 -0.62195449
C  -4.43666105  2.72110329  0.39188236
O  -6.04539593  2.19054698 -1.19431308
N  -3.01635665  3.01108386 -0.02224801
C  -5.23609682  4.01091344  0.62418332
C  -1.98940674  2.18827152  0.25017635
C  -0.54038677  2.67682683 -0.14243727
O  -2.16332475  1.08372727  0.73541162
N   0.37729965  1.55928526 -0.47509918
C   1.54137175  1.60358520  0.20298009
O   1.86227864  2.64153834  0.76313951
C   3.89225068  0.50784507  0.48246252
C   4.61867464  1.34237194  1.52817287
C   4.63300446  2.70868331  1.71678648
C   5.19747701  0.82600715  2.73559551
N   5.00258497  3.01891556  3.06811420
C   5.34242572  1.85345765  3.70883585
C   5.20869419 -0.49302405  3.21083938
C   5.59745979  1.61293217  5.01509843
C   5.24249545 -0.75266032  4.55234048
C   5.40107584  0.33242395  5.43492179
H  -0.11681856 -3.86152961 -1.48069229
H   1.24676974 -1.83975850 -3.20993004
H   2.11731360 -3.14219170 -2.29688697
H   1.29203750 -1.49780101  0.38067107
H   1.91841467  0.30448387  1.56253489
H  -2.52680301 -3.39692053 -1.41245740
H  -2.71255413 -0.73456422 -1.76506283
H  -2.22049179 -2.79227578 -4.43560305
H  -3.42469400 -3.85377864 -3.50959321
H  -1.44017046 -5.23766426 -2.65095673
H  -0.26577709 -4.33600685 -3.60364039
H  -6.12005079 -0.87379591 -0.35505720
H  -5.88836186 -0.15850332 -2.00383850
H  -3.81759951  0.23132310  0.10708116
H  -4.35522101  2.23284716  1.41720145
H  -2.93354384  3.73884464 -0.72032487
H  -4.75264250  4.67540693  1.35757004
H  -6.33256196  3.99184530  0.76506149
H  -5.26354385  4.55259326 -0.35599944
H  -0.72520050  3.33500679 -0.95577513
H  -0.03769726  3.12406070  0.72302944
H   0.01247775  0.73419143 -0.96711768
H   4.42768958 -0.55896078  0.48054951
H   4.11207664  0.97979291 -0.51816214
H   4.13845919  3.50531818  1.28803634
H   4.60418335  3.80669650  3.52516055
H   5.13447981 -1.36392140  2.60181415
H   5.74587233  2.43474458  5.74157788
H   5.30018687 -1.80339532  4.78583342
H   5.18923149  0.09552482  6.44557696
