70
pH=7.79 total_charge=-1 partial_charge_sum=-1.000000 method=gasteiger energy=-374.79143275
N  -0.33185477 -2.75940224 -1.43771844
C   1.12147883 -2.58433793 -1.58681294
C   1.71606976 -1.20642642 -1.15583435
O   2.10789751 -0.38651651 -1.96929945
N   1.87074670 -1.03682091  0.21397013
C   2.35811684  0.17855458  0.98007882
C  -1.15906059 -2.27522922 -2.44722041
C  -2.56434025 -2.88032291 -2.62110934
O  -0.81280209 -1.35292039 -3.20419906
N  -3.54548734 -1.77326612 -2.49299976
C  -2.73987790 -3.61038644 -3.90792872
C  -4.56918427 -1.69115783 -1.71279107
C  -1.80864657 -4.82660921 -3.99995932
C  -5.30104177 -0.32712835 -1.66032969
O  -4.80566003 -2.49737193 -0.77049109
C  -2.32083664 -6.03854784 -4.75725136
N  -4.60588906  0.32392691 -0.57731024
O  -1.62905697 -6.28003171 -5.80385459
O  -3.42944557 -6.51813555 -4.42950021
C  -4.59600164  1.66493274 -0.40778418
C  -3.66100210  1.98432381  0.76850723
O  -5.30089862  2.51795597 -0.97832676
N  -2.38266430  2.62691299  0.31789713
C  -4.24142610  2.82815006  1.99296702
C  -1.27939553  1.88009206  0.14159663
C  -0.04444223  2.77229292 -0.31068020
O  -1.30440390  0.65730496  0.38706539
N   1.08087216  1.86194144 -0.18028911
C   1.42023802  1.34373774  1.01307342
O   1.27474048  1.89686845  2.14275117
C   3.81478699  0.69467695  0.55578288
C   4.31139787  1.75607042  1.45574370
C   4.02364592  3.06933368  1.40139170
C   5.16445413  1.46596498  2.52380703
N   4.65269975  3.64648683  2.45492361
C   5.27281170  2.68548203  3.19759933
C   5.46886895  0.19858457  3.08082076
C   5.90220241  2.66563545  4.44234923
C   6.07185525  0.19010118  4.39143346
C   6.29880453  1.50217053  5.03423475
H  -0.42870048 -3.75111405 -1.25723975
H   1.48283691 -2.77727453 -2.59940864
H   1.41756052 -3.39159471 -0.89374616
H   1.23154815 -1.62258228  0.69411612
H   2.40582428 -0.18677027  2.00566907
H  -2.83938268 -3.62158971 -1.80796119
H  -3.37482521 -1.00242459 -3.11341111
H  -2.65445920 -3.01532187 -4.73953157
H  -3.70438155 -4.14941250 -3.88427224
H  -1.61273207 -5.08630768 -2.94543028
H  -0.88888005 -4.57139851 -4.20609758
H  -6.37433408 -0.42363393 -1.44400898
H  -5.29843902  0.10270909 -2.78290373
H  -3.85717074 -0.25977441 -0.17631938
H  -3.22891648  0.98060751  1.16134129
H  -2.32332098  3.62760003  0.42371464
H  -3.46001908  2.91548902  2.76755825
H  -5.08270989  2.26629772  2.47923274
H  -4.65660714  3.79894297  1.55521968
H  -0.20423953  3.05350509 -1.26634049
H   0.08026157  3.67015527  0.37670396
H   1.22772936  1.33673265 -0.99683281
H   4.51143939 -0.19405124  0.53892807
H   3.73852297  1.07994317 -0.46603236
H   3.51666914  3.69974879  0.66001704
H   4.87836125  4.58646241  2.54486386
H   5.33264978 -0.68219647  2.53923948
H   6.27165339  3.61083263  4.76615394
H   6.18647329 -0.75080482  4.98472606
H   6.75350815  1.67310169  6.03192676
