70
pH=7.79 total_charge=-1 partial_charge_sum=-1.000000 method=gasteiger energy=-375.41252650
N  -0.13724726 -2.64727745 -1.48612723
C   1.21078491 -2.34022087 -1.86144288
C   1.81889184 -1.09824884 -1.15632869
O   2.35166124 -0.18686094 -1.85171199
N   1.79196639 -1.00807522  0.20153000
C   2.35118820  0.12397294  0.92645618
C  -1.16841256 -2.03400008 -2.27132664
C  -2.47661898 -2.79891622 -2.45151039
O  -0.99778176 -0.94685771 -2.72570475
N  -3.53046412 -1.73544410 -2.42944632
C  -2.38838992 -3.52503853 -3.79242313
C  -4.46217993 -1.92072109 -1.51491818
C  -1.56932241 -4.81060273 -3.64901027
C  -5.28589864 -0.59014711 -1.28081007
O  -4.57755721 -2.85134661 -0.71586602
C  -1.84179582 -5.85527537 -4.90632854
N  -4.68711248  0.15896670 -0.20238115
O  -1.00612464 -5.74041173 -5.78330688
O  -2.90099378 -6.45436545 -4.74314536
C  -4.75034814  1.48250783 -0.16478055
C  -3.77001563  2.08062321  0.95479800
O  -5.34068117  2.05757565 -1.05017215
N  -2.54983451  2.64698063  0.46955839
C  -4.48930149  3.16340641  1.81160018
C  -1.47996324  1.90694367  0.06676255
C  -0.22925409  2.62658244 -0.41614177
O  -1.52918337  0.72636129 -0.16911852
N   0.98590919  1.81544717 -0.38933833
C   1.28509556  1.30050138  0.81650088
O   0.63570578  1.66076034  1.75469529
C   3.74315850  0.46111118  0.38080492
C   4.39812309  1.51839551  1.31977063
C   3.98302265  2.78919452  1.26395465
C   5.13049479  1.34682676  2.49944155
N   4.47042274  3.49462868  2.32367462
C   5.11780739  2.56429607  3.15697875
C   5.46629713  0.19034077  3.16164096
C   5.69475513  2.64703637  4.43764713
C   5.99130161  0.30285829  4.47117876
C   6.14692605  1.52957845  5.06656384
H  -0.20894308 -3.64804867 -1.44730230
H   1.33060305 -2.18264885 -2.87865952
H   1.92227949 -3.19452168 -1.74417870
H   1.30814258 -1.66852522  0.80160414
H   2.40266307 -0.10350500  2.01013258
H  -2.70775846 -3.41501641 -1.61370106
H  -3.39828102 -0.87384011 -2.90288830
H  -2.09464341 -3.00853919 -4.71154133
H  -3.43396836 -3.78914160 -4.07462416
H  -1.88613186 -5.34248256 -2.76423332
H  -0.51332395 -4.56892503 -3.86407752
H  -6.30711634 -0.84076308 -1.01466052
H  -5.31230641 -0.02819221 -2.14721552
H  -4.01557732 -0.42318874  0.37932879
H  -3.55971380  1.28758516  1.62889180
H  -2.32171496  3.60359665  0.65836579
H  -3.92894122  3.34525705  2.76466652
H  -5.50593129  2.76624177  2.00557217
H  -4.62065273  4.06495764  1.26002510
H  -0.40450811  3.29331985 -1.43589759
H   0.14800082  3.43556869  0.22186352
H   1.37918323  1.32859748 -1.13125113
H   4.36058396 -0.41320547  0.27684333
H   3.69084088  0.81628413 -0.60891443
H   3.44826532  3.39244881  0.56146696
H   4.52547803  4.47592194  2.50173187
H   5.27169437 -0.80893246  2.82308894
H   5.89187663  3.56711761  4.80811365
H   6.52530428 -0.48312019  4.89504418
H   6.79139342  1.60204023  5.97484910
