70
pH=7.79 total_charge=-1 partial_charge_sum=-1.000000 method=gasteiger energy=-374.87737025
N   0.26736285 -2.58684737 -1.57497525
C   1.45563629 -2.15514405 -2.29408121
C   2.13327634 -0.95958959 -1.66758253
O   2.74869031 -0.07634168 -2.22868670
N   1.83619584 -0.78556003 -0.33918832
C   2.39335722  0.24452315  0.53611496
C  -0.92751049 -1.87478416 -1.97692328
C  -2.20418312 -2.69763933 -2.02362546
O  -0.80623376 -0.84914309 -2.56391746
N  -3.23644922 -1.63879971 -2.12647014
C  -2.32918084 -3.50804543 -3.27498402
C  -4.44654155 -1.71517170 -1.51964462
C  -1.23253734 -4.59044792 -3.36193621
C  -5.13581098 -0.40324254 -1.45602139
O  -4.90133144 -2.81264216 -1.10896900
C  -1.59105109 -5.81021619 -4.28145160
N  -4.49942361  0.60502066 -0.63481598
O  -0.62104931 -6.33786327 -4.85277649
O  -2.82947002 -5.96824174 -4.37215638
C  -5.05042701  1.82398962 -0.47862142
C  -4.15008766  2.66807116  0.48775441
O  -6.04663969  2.17236034 -1.05641414
N  -2.85660749  2.72577873 -0.12320834
C  -4.94293678  3.94437612  0.64663565
C  -1.75046766  1.99223171  0.18771459
C  -0.53752480  2.49484330 -0.58599956
O  -1.80841082  1.14057888  1.02456249
N   0.51374759  1.54266774 -0.58212037
C   1.35499597  1.43088149  0.45692707
O   1.40139832  2.27888172  1.32698323
C   3.77810564  0.66394618  0.38878344
C   4.31135074  1.54168279  1.46387691
C   4.79793867  2.80907476  1.54092217
C   4.61666593  0.96784142  2.73165495
N   5.43538806  3.03097610  2.76647453
C   5.30172218  1.88200800  3.51270955
C   4.40678408 -0.40068214  3.22472436
C   5.81919718  1.45306915  4.78470958
C   4.93101274 -0.78819451  4.45651749
C   5.54829294  0.16103426  5.17948172
H   0.06112294 -3.57858086 -1.74733619
H   1.19757799 -1.84675165 -3.36432359
H   2.14060035 -2.98037901 -2.17521070
H   1.25056827 -1.48026746 -0.03910055
H   2.30188327 -0.10504426  1.66993423
H  -2.31261159 -3.39473198 -1.14995342
H  -2.92327612 -0.89831029 -2.64544579
H  -2.30072810 -2.83342899 -4.11464317
H  -3.33323677 -3.95789804 -3.11889892
H  -1.25702117 -5.07341717 -2.37527797
H  -0.24175631 -4.41717339 -3.59860618
H  -6.16966049 -0.68179612 -1.16025741
H  -5.04187020  0.01353341 -2.51079178
H  -3.92695040  0.08279896 -0.02036166
H  -3.88808430  2.10079493  1.43251754
H  -2.71287989  3.46924150 -0.85872634
H  -4.26943300  4.64486104  1.17181856
H  -5.84644498  3.56175397  1.14523730
H  -5.10177885  4.48845573 -0.33723278
H  -0.75669759  2.62531274 -1.68250392
H  -0.04985958  3.38477027 -0.23547870
H   0.47603718  0.77719171 -1.12975636
H   4.49138126 -0.19638875  0.34631183
H   4.02196048  0.98716171 -0.68852377
H   5.12828144  3.54851220  0.82229462
H   6.11046047  3.77556485  2.85821710
H   3.70753522 -1.12849252  2.69871380
H   6.35720857  2.22868952  5.34011441
H   4.73401032 -1.78919826  4.91916447
H   5.91262668 -0.14941205  6.25638033
