70
pH=7.79 total_charge=-1 partial_charge_sum=-1.000000 method=gasteiger energy=-375.29533900
N   0.18916945 -2.49376682 -1.90555363
C   1.49590258 -2.08503714 -2.43332817
C   2.10399266 -0.94806780 -1.68719107
O   2.84631680 -0.18425930 -2.28956767
N   1.60530355 -0.75178516 -0.41914321
C   2.03122618  0.29417143  0.56637157
C  -0.98088308 -1.83108081 -2.13947702
C  -2.25501452 -2.71077919 -2.09174113
O  -1.01900459 -0.64785844 -2.54148780
N  -3.39560370 -1.75655142 -1.86429652
C  -2.36392922 -3.63407655 -3.33186243
C  -4.52407032 -1.84787929 -1.16489830
C  -1.18013164 -4.58425300 -3.54367855
C  -5.42219728 -0.59459249 -1.42994062
O  -4.89384554 -2.72234427 -0.37558913
C  -1.36814994 -5.73555522 -4.58249842
N  -5.26484255  0.29732661 -0.30485548
O  -0.52939083 -5.76079598 -5.49106485
O  -2.34662765 -6.44885971 -4.18542006
C  -5.09510811  1.63341422 -0.36003282
C  -4.22877273  2.11105098  0.75620885
O  -5.51217442  2.27081068 -1.29547768
N  -2.98953719  2.51639117  0.01370720
C  -4.79921581  3.26345026  1.54558776
C  -1.80807410  1.93280115  0.12709614
C  -0.66663684  2.59011327 -0.59839434
O  -1.70216161  0.89452211  0.78636168
N   0.39132880  1.58338961 -0.61495217
C   1.11658799  1.53021626  0.54647522
O   1.32733040  2.39991988  1.31938845
C   3.51310436  0.78161194  0.27594135
C   4.25331061  1.52638568  1.35168725
C   4.23814976  2.87461821  1.54691862
C   4.82425211  0.95234877  2.59045405
N   4.89774430  3.10121501  2.77887508
C   5.37493630  2.00859548  3.39495919
C   5.23960280 -0.28304229  3.07031669
C   6.03989234  1.86192133  4.62698290
C   5.88320613 -0.41976596  4.31872004
C   6.28834362  0.61965237  5.07067142
H   0.11537065 -3.43776063 -1.75653668
H   1.49021250 -1.71277082 -3.42925026
H   2.12295807 -2.96587714 -2.33920109
H   0.79807918 -1.30748532 -0.18577095
H   2.07097641 -0.17687035  1.62422482
H  -2.03034360 -3.25357069 -1.22045233
H  -3.20914618 -0.95880572 -2.39750505
H  -2.39416798 -3.05260444 -4.21499519
H  -3.20224870 -4.32690924 -3.40674380
H  -0.79886298 -5.16063480 -2.61620062
H  -0.19862658 -4.09414636 -3.84369590
H  -6.45677182 -1.01013050 -1.40066478
H  -5.35987019 -0.05596602 -2.33549458
H  -4.80379716 -0.15048578  0.52622763
H  -4.00290489  1.18032197  1.33326933
H  -3.00439830  3.47145927 -0.30077975
H  -4.31053392  3.86770395  2.27977156
H  -5.77627226  2.86195819  1.86649580
H  -4.92243791  4.05716032  0.73225686
H  -1.06188061  2.89233095 -1.63726257
H  -0.23360491  3.46087443 -0.08117468
H   0.27366254  0.75500524 -1.12265886
H   4.10084858  0.06804237 -0.22173693
H   3.48551646  1.48378851 -0.62599938
H   3.96516092  3.73760594  0.94119322
H   5.24610535  4.03428959  3.03677545
H   4.77280991 -1.10589416  2.64909722
H   6.38475554  2.74962872  5.19308638
H   5.92137847 -1.47245289  4.73482440
H   6.66304821  0.59972752  6.03468186
