70
pH=7.79 total_charge=-1 partial_charge_sum=-1.000000 method=gasteiger energy=-375.45940150
N   0.17412247 -2.84659110 -1.80511155
C   1.45674137 -2.36329842 -2.17669440
C   2.15794678 -1.12400991 -1.42513327
O   2.94569606 -0.47108437 -2.10363655
N   1.93246255 -0.94105169 -0.14280210
C   2.34978740  0.36065036  0.50942417
C  -0.82828092 -2.02709897 -2.01089014
C  -2.25896340 -2.72312711 -2.15608436
O  -0.64170876 -0.83846995 -2.18981183
N  -3.24161575 -1.55655756 -1.91792973
C  -2.29800510 -3.44735148 -3.53674294
C  -4.57083497 -1.72542470 -1.53925807
C  -1.34531090 -4.66800540 -3.57688739
C  -5.35632772 -0.47324834 -1.02769876
O  -5.11120533 -2.78679881 -1.52942208
C  -1.50438283 -5.74093766 -4.70159818
N  -4.57893236  0.57573385 -0.51943502
O  -0.37815567 -6.29107351 -4.93865620
O  -2.63342421 -6.02047405 -5.01847558
C  -5.07943117  1.82804499 -0.49249851
C  -4.32928417  2.76692414  0.46453735
O  -6.04177335  2.22791628 -1.21875056
N  -3.01617252  3.06059651 -0.02836192
C  -5.22215459  4.03199383  0.54351866
C  -1.97608103  2.14678879  0.17648689
C  -0.60233243  2.60537390 -0.19598886
O  -2.22054589  1.06277681  0.69701673
N   0.30541594  1.54871666 -0.43865413
C   1.49057121  1.62847798  0.26416645
O   1.85907552  2.66501651  0.81182531
C   3.89993818  0.57726911  0.49261007
C   4.67195924  1.43021927  1.54673540
C   4.56650794  2.79477723  1.82701116
C   5.20219526  0.78993258  2.75822501
N   4.97191353  3.05338908  3.04998142
C   5.31698895  1.85927448  3.61801844
C   5.18677653 -0.54953377  3.20231651
C   5.59376365  1.60820199  4.98637843
C   5.19769686 -0.81818345  4.56465984
C   5.43435489  0.30734669  5.45487113
H   0.00834728 -3.86118016 -2.02432157
H   1.39332375 -1.97034764 -3.30115842
H   2.17651003 -3.14486138 -2.16181389
H   1.18505651 -1.42416887  0.26130583
H   2.14185902 -0.01642871  1.55243946
H  -2.38490899 -3.53342249 -1.37378078
H  -2.72731433 -0.69406138 -1.74488256
H  -2.06674074 -2.76544495 -4.32190367
H  -3.32679034 -3.83024828 -3.75507834
H  -1.36899431 -5.33640135 -2.70624170
H  -0.36795206 -4.16708582 -3.66075615
H  -6.00508734 -0.83750616 -0.27456127
H  -6.07703114 -0.12936174 -1.81218928
H  -3.80719937  0.52935327  0.15876228
H  -4.10594428  2.24766605  1.48440551
H  -2.96239296  3.57020455 -0.87877325
H  -4.93325902  4.51520852  1.47441414
H  -6.24939812  3.66528593  0.73487220
H  -5.12314992  4.75408005 -0.30530235
H  -0.63796348  3.22475271 -1.07519948
H  -0.31249320  3.31044878  0.59312984
H  -0.05817525  0.68290048 -0.89312431
H   4.31845564 -0.50073084  0.26897425
H   3.99413271  1.09818634 -0.51317321
H   4.20274427  3.53376605  1.18687656
H   4.86752469  3.92815371  3.49225723
H   5.05427126 -1.33161028  2.49954893
H   5.60975744  2.40926039  5.73892897
H   5.09355214 -1.80030777  5.05686532
H   5.41681069  0.29189394  6.49623094
