70
pH=7.79 total_charge=-1 partial_charge_sum=-1.000000 method=gasteiger energy=-375.43596400
N   0.11143125 -2.74418553 -1.64442403
C   1.38800665 -2.33129386 -2.13661915
C   2.17800272 -1.23012617 -1.36777725
O   3.02122397 -0.64472992 -2.03687917
N   1.75707168 -0.86882494 -0.14521617
C   2.35851244  0.34305236  0.61358559
C  -0.95585638 -2.01783292 -2.01194126
C  -2.33989998 -2.53352255 -2.24727576
O  -0.71667345 -0.80195044 -2.16098745
N  -3.28649395 -1.43538383 -1.98331675
C  -2.46974482 -3.44840911 -3.54894450
C  -4.51074603 -1.73996245 -1.53907020
C  -1.41085874 -4.52985976 -3.50053916
C  -5.31851423 -0.53153377 -1.24808153
O  -5.09075392 -2.79106923 -1.45011474
C  -1.45047936 -5.70930546 -4.58155565
N  -4.62871201  0.53861499 -0.62924429
O  -0.38774635 -6.19888034 -4.92883949
O  -2.60434485 -5.92957941 -5.09221584
C  -5.12571528  1.81889255 -0.62402940
C  -4.39569057  2.74571279  0.37546555
O  -6.10284187  2.13775645 -1.28302227
N  -3.04520195  2.99489890  0.00107124
C  -5.16353348  4.03342927  0.59376212
C  -1.93801453  2.15134357  0.30838073
C  -0.52367472  2.63628127 -0.11796816
O  -2.08835925  1.09911160  0.87508134
N   0.40118683  1.56560949 -0.47307316
C   1.61815458  1.58825179  0.15943560
O   1.99055658  2.61412451  0.66772752
C   3.93061407  0.41754428  0.45051464
C   4.56987522  1.33436622  1.54543553
C   4.57501208  2.62075028  1.71519058
C   5.09788230  0.80503344  2.76620973
N   5.06397830  3.01456388  2.91695582
C   5.33029348  1.83671053  3.67336013
C   5.25643113 -0.49163859  3.16090401
C   5.48889794  1.65036014  5.09930026
C   5.38781972 -0.72163069  4.53070747
C   5.42643785  0.25789002  5.53316321
H   0.09990378 -3.78709115 -1.45288368
H   1.27306003 -1.81901244 -3.06021980
H   2.12569975 -3.09439836 -2.34611012
H   1.14461758 -1.51152844  0.28834318
H   2.27824515  0.05902776  1.68231989
H  -2.42613172 -3.20141476 -1.41236170
H  -3.04008141 -0.46263085 -2.29048477
H  -2.45562514 -2.86116286 -4.41105584
H  -3.42934606 -3.92921532 -3.52482770
H  -1.34830458 -5.00218316 -2.49599188
H  -0.46138067 -4.10600929 -3.59837578
H  -6.03005892 -0.89551037 -0.53535444
H  -5.90600263 -0.16691695 -2.05027087
H  -3.86070864  0.44937220 -0.07683888
H  -4.33245108  2.09190493  1.28962093
H  -2.82999452  3.91761530 -0.31526913
H  -4.56697776  4.64989302  1.23425040
H  -6.01993309  3.63252645  1.16109561
H  -5.45625796  4.54295808 -0.36304745
H  -0.47274382  3.38731099 -0.95787221
H  -0.18610128  3.10492312  0.82548565
H   0.06772281  0.65478840 -0.88773140
H   4.19782391 -0.52877392  0.66100028
H   4.14735758  0.68424437 -0.56707639
H   4.30287489  3.39536810  0.98930837
H   4.66414260  3.81173888  3.34135357
H   5.19953077 -1.24586033  2.36074041
H   5.73639576  2.37200857  5.83073237
H   5.32252487 -1.71338638  4.93461452
H   5.71079286  0.00704216  6.57226579
