70
pH=7.79 total_charge=-1 partial_charge_sum=-1.000000 method=gasteiger energy=-375.83440150
N   0.12671872 -2.56026600 -1.98100709
C   1.48001234 -2.09446282 -2.38681857
C   2.04181651 -0.82277265 -1.70301536
O   2.85275397 -0.14402612 -2.27117792
N   1.75090718 -0.71143167 -0.34299905
C   2.12178675  0.34095072  0.54512191
C  -0.97002103 -1.82717847 -2.17401544
C  -2.23015591 -2.70642758 -2.03746234
O  -0.97126094 -0.62010366 -2.52014118
N  -3.33298802 -1.82093306 -1.93994695
C  -2.30068143 -3.65012223 -3.29527937
C  -4.53668389 -1.83364317 -1.24286756
C  -1.07278414 -4.55696477 -3.38685254
C  -5.49367927 -0.69590091 -1.41902457
O  -4.87585540 -2.68908151 -0.49060797
C  -1.28416442 -5.68039326 -4.45072840
N  -5.22455824  0.24926558 -0.33529632
O  -0.52517725 -5.76855864 -5.40214908
O  -2.29108179 -6.42937513 -4.24502117
C  -5.08689026  1.58690219 -0.39766565
C  -4.25193212  2.17198664  0.75835225
O  -5.53876115  2.34206509 -1.31353497
N  -3.10851008  2.52605146 -0.04890451
C  -4.82642027  3.33734204  1.56655981
C  -1.92008844  1.92893806  0.14862762
C  -0.68988180  2.56010193 -0.64446850
O  -1.75883707  0.91237957  0.78849578
N   0.34929213  1.63118322 -0.57105666
C   1.18994541  1.57309486  0.47460651
O   1.16831088  2.45455283  1.34619726
C   3.54823395  0.85771683  0.31857389
C   4.21930692  1.49966132  1.48270357
C   4.33724245  2.84507954  1.59987849
C   4.94697351  0.87060381  2.58646358
N   4.99756760  3.15739928  2.71573531
C   5.28808375  1.98622918  3.39416733
C   5.18201863 -0.45971152  3.03756266
C   5.99227463  1.88027765  4.58243432
C   5.84823979 -0.62268032  4.25853215
C   6.21479433  0.56482782  5.03777790
H  -0.00043466 -3.57125364 -1.79839707
H   1.49027368 -1.98469662 -3.46991157
H   2.20103834 -2.86901596 -2.35038479
H   0.94533568 -1.25754994  0.03447719
H   1.95796195 -0.04533163  1.49649820
H  -2.25510529 -3.36903043 -1.14552708
H  -3.21710878 -1.00919805 -2.56365804
H  -2.44283571 -2.93864875 -4.13874881
H  -3.36933642 -4.08907976 -2.94625473
H  -0.94295562 -5.00198545 -2.46149133
H  -0.30754118 -3.93071214 -3.69754557
H  -6.47814942 -1.03327070 -1.50831141
H  -5.38498628 -0.22776465 -2.42746740
H  -4.83547412 -0.09996788  0.47552934
H  -3.83518119  1.44332242  1.51358408
H  -3.24716496  3.22247759 -0.76462218
H  -3.90579357  3.41759533  2.16139860
H  -5.64634120  3.09451243  2.26195316
H  -5.12189845  4.17986931  0.96592965
H  -0.87429297  2.86017032 -1.67771427
H  -0.48023189  3.51322492 -0.19523232
H   0.15876017  0.82445386 -1.18632575
H   4.08896800 -0.10106322  0.15872365
H   3.53140633  1.45631023 -0.61762001
H   3.82891981  3.57764511  0.98274520
H   5.23305983  4.07710045  3.07693212
H   5.10364898 -1.40728737  2.40224339
H   6.26443650  2.74360475  5.15455127
H   6.02199913 -1.60770040  4.56603246
H   6.79489193  0.34729515  5.98582526
