70
pH=7.79 total_charge=-1 partial_charge_sum=-1.000000 method=gasteiger energy=-375.43596400
N  -0.07386551 -2.56715727 -1.59104552
C   1.28206019 -2.34766539 -1.97897496
C   2.14758846 -1.22791364 -1.32326389
O   3.11793445 -0.76022762 -1.84017082
N   1.77289159 -1.00364703  0.00017558
C   2.36297834  0.22445013  0.65458745
C  -1.10311615 -1.85362271 -1.91776619
C  -2.39972759 -2.47400184 -1.98577406
O  -1.01482091 -0.61409121 -2.18809672
N  -3.34706730 -1.45093842 -2.20949155
C  -2.40242622 -3.36226337 -3.35878582
C  -4.56874229 -1.74332064 -1.76166419
C  -1.30536013 -4.40654934 -3.57555686
C  -5.47606061 -0.46264219 -1.59050246
O  -4.97751049 -2.88926160 -1.47683911
C  -1.44084787 -5.46646970 -4.65287916
N  -4.76625948  0.40441378 -0.66152624
O  -0.41694665 -6.04483636 -4.89850139
O  -2.61584120 -5.68973476 -5.15613300
C  -5.04720210  1.73180685 -0.64651657
C  -4.31518848  2.66317579  0.31670681
O  -5.98881535  2.19734366 -1.20131657
N  -2.95631586  2.86960818 -0.03882081
C  -5.02771251  3.97442741  0.54316637
C  -1.88819196  2.11008969  0.37572413
C  -0.51924838  2.60926149 -0.17397936
O  -2.00279565  1.17455834  1.14065668
N   0.37584415  1.42997141 -0.18754888
C   1.65034646  1.54834003  0.29856350
O   2.15006946  2.65519052  0.49426943
C   3.87645157  0.40518145  0.45503970
C   4.46729445  1.22032524  1.51707224
C   4.66541022  2.52708105  1.55227568
C   4.80853890  0.65629789  2.77661369
N   5.09984036  2.88716709  2.83214302
C   5.18991135  1.76412492  3.59100712
C   5.11240730 -0.64925381  3.23815999
C   5.52465427  1.69070612  4.95736341
C   5.66410955 -0.69092908  4.50423242
C   5.71008242  0.36379986  5.45251117
H  -0.30544866 -3.53121140 -1.26284687
H   1.28245078 -2.35914468 -3.12118863
H   1.72542958 -3.39102188 -1.96571997
H   0.84381058 -1.18825363  0.30655644
H   2.13023928  0.16707451  1.77186396
H  -2.71017261 -3.19938377 -1.20158401
H  -3.06225396 -0.52395026 -1.98944454
H  -2.39232958 -2.68103125 -4.18221375
H  -3.43002228 -3.77121152 -3.43657967
H  -1.35594191 -5.05248199 -2.70645296
H  -0.36594954 -3.97529533 -3.73436534
H  -6.45072345 -0.72659509 -1.18229316
H  -5.65858419 -0.00762005 -2.64112265
H  -3.96226652  0.12448120 -0.05494713
H  -4.31442909  2.19799053  1.32556885
H  -2.84409982  3.35635816 -0.93946882
H  -4.34697031  4.80371355  0.78613622
H  -5.59197882  3.82879315  1.45681573
H  -5.52706313  4.35192356 -0.37624793
H  -0.68514143  2.99027656 -1.17065287
H  -0.03410770  3.44503295  0.31459405
H  -0.04759826  0.49948210 -0.45699094
H   4.39806908 -0.63042587  0.38223952
H   4.16435848  0.86565359 -0.51166473
H   4.70269647  3.32381699  0.80125574
H   5.43396324  3.80080858  3.14956386
H   4.75716822 -1.56467515  2.74013903
H   5.56639497  2.64026063  5.41027930
H   5.86232526 -1.68064870  4.90188473
H   5.94732967  0.36029146  6.51910956
