70
pH=7.79 total_charge=-1 partial_charge_sum=-1.000000 method=gasteiger energy=-375.24455775
N  -0.09690989 -2.53733221 -1.58540602
C   1.26749429 -2.35772996 -2.02086095
C   2.15126673 -1.28414970 -1.28108300
O   3.09285283 -0.77759268 -1.86461254
N   1.76379894 -1.00534941  0.04255441
C   2.37758820  0.24904531  0.63200924
C  -1.14747702 -1.78568902 -1.90847368
C  -2.41043090 -2.46493335 -2.01306654
O  -1.00962332 -0.60885972 -2.18726490
N  -3.35685830 -1.44148705 -2.23237380
C  -2.41251258 -3.36261520 -3.34163470
C  -4.59699145 -1.77261358 -1.78883020
C  -1.27296579 -4.37255380 -3.54955699
C  -5.44721378 -0.52406406 -1.62706510
O  -5.01189623 -2.89034712 -1.48063049
C  -1.48235953 -5.41309879 -4.65349222
N  -4.76259075  0.39369887 -0.68816923
O  -0.39070419 -6.02505350 -4.88875441
O  -2.62560916 -5.64510944 -5.18397160
C  -5.06998792  1.74226658 -0.60276598
C  -4.31916272  2.67125625  0.35500771
O  -5.95215502  2.23141669 -1.19173580
N  -2.93090968  2.85193868 -0.03953068
C  -5.01370410  3.99152161  0.50363728
C  -1.85391044  2.10884637  0.39358193
C  -0.54541364  2.58791150 -0.17174362
O  -1.99611126  1.18701686  1.14173848
N   0.36802640  1.40523625 -0.15642442
C   1.60826303  1.55273401  0.33518737
O   2.14909736  2.64764570  0.47428084
C   3.92021063  0.32719229  0.39377973
C   4.45723620  1.18849669  1.51004443
C   4.67031035  2.51146863  1.53729801
C   4.79784271  0.64941622  2.81690338
N   5.10469859  2.87610729  2.82450014
C   5.18280165  1.75077345  3.60430925
C   5.09187879 -0.66321477  3.20636767
C   5.52366285  1.71855931  4.96899476
C   5.63966541 -0.66665234  4.51718417
C   5.77396809  0.36334924  5.44673754
H  -0.16470505 -3.44341511 -1.19959112
H   1.38264852 -2.27144808 -3.06722861
H   1.82688524 -3.32098198 -1.86596698
H   0.78917596 -1.17344104  0.32020152
H   2.08509817 -0.02897621  1.65996963
H  -2.60915360 -3.24577474 -1.28278055
H  -3.04928892 -0.47867522 -2.05135117
H  -2.32329423 -2.59746162 -4.17208108
H  -3.35904060 -3.85231261 -3.40899647
H  -1.28564575 -4.98636251 -2.61220260
H  -0.22210040 -3.96131512 -3.57152404
H  -6.45867946 -0.74978007 -1.25769642
H  -5.54678908  0.03763469 -2.48720512
H  -3.96532420  0.16770804 -0.16694326
H  -4.26530680  2.06220196  1.27167589
H  -2.76488357  3.21796583 -0.94597444
H  -4.25568351  4.76166129  0.73640873
H  -5.61913920  3.76043037  1.36588509
H  -5.58066324  4.24955880 -0.33729472
H  -0.62288264  2.93492736 -1.22436031
H   0.02729112  3.37320986  0.33648883
H  -0.00588176  0.53248778 -0.38858277
H   4.43919139 -0.55769032  0.39331839
H   3.95265320  0.99094613 -0.46992741
H   4.68838788  3.26834417  0.80731718
H   5.26586497  3.77104481  3.21865088
H   4.77407508 -1.62809598  2.85103719
H   5.72986231  2.63196776  5.62721471
H   5.94818456 -1.61604347  4.91915680
H   5.95991246  0.19485679  6.50351051
