70
pH=7.79 total_charge=-1 partial_charge_sum=-1.000000 method=gasteiger energy=-375.42424525
N   0.19555033 -2.50268276 -1.78709069
C   1.57348282 -2.06019325 -2.30720806
C   2.09772452 -0.91255617 -1.60171019
O   2.76237435 -0.10610355 -2.27147695
N   1.80615580 -0.74419758 -0.31351419
C   2.13154500  0.39209815  0.50730661
C  -0.93868875 -1.80405006 -2.08432245
C  -2.25885180 -2.59647510 -2.09131594
O  -0.90003922 -0.63627373 -2.50127495
N  -3.38095881 -1.68133720 -2.11359800
C  -2.22117598 -3.70760096 -3.18394159
C  -4.52921855 -1.84655701 -1.43245306
C  -1.03614422 -4.63732634 -3.28607966
C  -5.46774595 -0.67544226 -1.51209441
O  -4.70451005 -2.79013793 -0.66616516
C  -1.34529225 -5.74820548 -4.38849913
N  -5.20615227  0.27627692 -0.39840275
O  -0.38997911 -5.77128706 -5.18416718
O  -2.35446052 -6.48550419 -4.21178995
C  -5.18296617  1.64712764 -0.38275559
C  -4.32897394  2.25044757  0.72402601
O  -5.61308348  2.29423303 -1.29374151
N  -3.10530738  2.69119294 -0.06504367
C  -4.76961909  3.43338906  1.59062744
C  -2.00743101  1.93517834  0.03757365
C  -0.80477034  2.50234141 -0.73694956
O  -1.82040428  0.98750895  0.84748497
N   0.32928703  1.70154914 -0.71923002
C   1.02993189  1.64507978  0.45576028
O   0.99244096  2.42841390  1.37879908
C   3.66989288  0.77754728  0.33317505
C   4.30841521  1.46298324  1.48715809
C   4.40073948  2.78751010  1.57687151
C   4.83549199  0.90010416  2.66793232
N   5.10444137  3.11075335  2.69174446
C   5.36266779  1.96365029  3.40864522
C   5.09192104 -0.40602742  3.02383573
C   5.95770937  1.73547063  4.68541697
C   5.81990708 -0.67503396  4.17303183
C   6.19330837  0.37417051  4.99326439
H  -0.02099969 -3.53610298 -1.80478768
H   1.52740006 -1.79693572 -3.39585590
H   2.34533009 -2.88987505 -2.36987275
H   1.11395693 -1.27442726  0.12888561
H   2.04212009  0.04937640  1.56529525
H  -2.38756824 -3.04218320 -1.05883357
H  -3.16202792 -0.65696786 -2.35519321
H  -2.23089519 -2.92126388 -4.08801481
H  -3.18977225 -4.16118468 -3.07517243
H  -0.84676953 -5.17690953 -2.35537579
H  -0.03539560 -4.08895148 -3.56022953
H  -6.57738619 -0.85706072 -1.66800344
H  -5.35183886 -0.26107136 -2.53734219
H  -4.68786612 -0.13894720  0.39088280
H  -3.94665144  1.55826193  1.40055547
H  -3.24171254  3.27674713 -0.89790432
H  -3.83526683  3.89157250  1.95498073
H  -5.43059000  3.07753011  2.35469435
H  -5.25442569  4.24477746  0.93488161
H  -0.98719842  2.79797507 -1.67332307
H  -0.69952192  3.52250051 -0.27893601
H   0.24079671  0.97087381 -1.45554746
H   4.16737770 -0.22745564  0.11212574
H   3.85719443  1.28273995 -0.56150827
H   4.17125014  3.52354122  0.84516032
H   4.89892875  3.99160520  3.14680939
H   4.77135395 -1.17131500  2.37253802
H   6.21837598  2.55684735  5.33162596
H   5.85630098 -1.82374435  4.40693634
H   6.68980209  0.15761726  5.94927654
