70
pH=7.79 total_charge=-1 partial_charge_sum=-1.000000 method=gasteiger energy=-375.36174525
N   0.28314783 -2.57966054 -1.58541698
C   1.51003438 -2.12280692 -2.25405833
C   2.08878980 -0.83867230 -1.61525607
O   2.82423413 -0.04811470 -2.19912721
N   1.84991866 -0.84134529 -0.27110397
C   2.19938688  0.27138706  0.48573803
C  -0.84602374 -1.90917161 -2.07201019
C  -2.25663845 -2.57350928 -2.05599442
O  -0.75992498 -0.80977081 -2.56020554
N  -3.30040422 -1.64616666 -2.13423647
C  -2.34995755 -3.49354444 -3.35462188
C  -4.49460580 -1.76166449 -1.51857119
C  -1.30409224 -4.59417804 -3.29208813
C  -5.21803074 -0.41324363 -1.57814723
O  -4.94530971 -2.72708674 -0.94513801
C  -1.57733782 -5.82169164 -4.19224620
N  -4.55469847  0.45694396 -0.56649006
O  -0.61791675 -6.28312870 -4.79854697
O  -2.80204482 -6.18943356 -4.35501001
C  -4.98776593  1.70145716 -0.49092982
C  -4.24034949  2.57115642  0.45164832
O  -5.99176283  2.14723459 -1.00116364
N  -2.86495180  2.79620046 -0.10932746
C  -4.85778712  3.94868527  0.65603743
C  -1.81559255  2.03972140  0.17533331
C  -0.56317336  2.47659810 -0.69381771
O  -1.64861867  1.15091823  1.01830054
N   0.49593436  1.49831089 -0.60085767
C   1.33362065  1.43605912  0.44554331
O   1.44252495  2.17880263  1.41766519
C   3.72873480  0.68492923  0.24406934
C   4.32213619  1.54963610  1.45936141
C   4.78505027  2.80992348  1.52754851
C   4.62454506  0.93486968  2.72358641
N   5.48926094  3.00459984  2.71863154
C   5.37356479  1.82219551  3.50608068
C   4.43438181 -0.32746214  3.12001686
C   5.91456793  1.51062256  4.73384296
C   4.82928584 -0.67612942  4.40147701
C   5.59878139  0.19901604  5.29033318
H   0.11717788 -3.57936050 -1.40430796
H   1.29183023 -1.93854317 -3.30551518
H   2.29841228 -3.01073705 -2.25851242
H   1.12410379 -1.44557924  0.15698808
H   2.15525668 -0.00193971  1.51474497
H  -2.48023410 -3.18863954 -1.12239253
H  -3.10744512 -0.71774947 -2.60336882
H  -2.21184001 -2.89738157 -4.30297655
H  -3.27929286 -4.02128230 -3.43575647
H  -1.07237400 -4.92006666 -2.29380406
H  -0.39281244 -4.09307766 -3.71926215
H  -6.33218080 -0.33249208 -1.38720422
H  -5.04808589  0.02962365 -2.50537431
H  -3.70031479  0.32032461 -0.02520697
H  -4.23853938  2.10519551  1.39395463
H  -2.90800013  3.45009093 -0.93659413
H  -4.25203425  4.50930749  1.45190866
H  -5.84487812  4.04975357  1.08777889
H  -4.94772283  4.34946953 -0.31412595
H  -0.90917675  2.73052200 -1.67232807
H  -0.27628764  3.41784144 -0.17786777
H   0.39494459  0.72876133 -1.31679392
H   4.25600889 -0.36389918  0.29760557
H   3.84292321  1.27064738 -0.63794347
H   4.46642755  3.61944627  0.86398193
H   6.05519784  3.80298510  2.96163185
H   4.09295854 -1.04903857  2.45973560
H   6.62656845  1.99840742  5.37821544
H   4.81527134 -1.69764122  4.71936659
H   6.09753472 -0.08799318  6.22051542
