70
pH=7.79 total_charge=-1 partial_charge_sum=-1.000000 method=gasteiger energy=-375.24065150
N  -0.27992902 -2.80659540 -1.12647658
C   1.13067280 -2.59015169 -1.45046904
C   1.70270842 -1.23442395 -1.10727518
O   2.15607885 -0.43414370 -1.89085778
N   1.79974025 -1.03917317  0.23228156
C   2.60986462 -0.00745128  0.90575233
C  -1.16364004 -2.34631882 -2.13085457
C  -2.64468855 -2.83410511 -2.08657953
O  -0.83418345 -1.61833514 -2.96766591
N  -3.40661126 -1.62617460 -2.18302813
C  -2.89374590 -3.79178844 -3.39641384
C  -4.72347033 -1.64862615 -1.78260808
C  -2.16320680 -5.09898857 -3.48138254
C  -5.19793489 -0.20082791 -1.61200388
O  -5.35399067 -2.65406400 -1.52135479
C  -2.70079798 -5.88723314 -4.79906176
N  -4.50113697  0.34884786 -0.38722791
O  -1.81939608 -5.83660466 -5.67927304
O  -3.79997810 -6.37271580 -4.69612696
C  -4.24163677  1.70994016 -0.33974130
C  -3.59872124  2.12832140  1.03166643
O  -4.57480669  2.49719838 -1.21257170
N  -2.22601655  2.66966363  0.79091010
C  -4.34303640  3.29171818  1.72169032
C  -1.21307584  1.89932161  0.22090574
C   0.07062965  2.69602547  0.12209788
O  -1.48382685  0.87310413 -0.29118551
N   1.28493492  1.86692892 -0.05363375
C   1.50027618  1.02040993  1.07487884
O   0.84143479  1.05956566  2.09521826
C   3.97797986  0.55654544  0.36208327
C   4.58909569  1.67693470  1.13939323
C   4.28893243  2.98652770  0.95318464
C   5.12031228  1.49340922  2.45527397
N   4.79201415  3.71758687  2.09035098
C   5.34793114  2.79956636  2.96462416
C   5.57097892  0.35913904  3.08718800
C   5.87049693  2.95430009  4.27038704
C   6.05582337  0.55749924  4.35329049
C   6.12611938  1.82636507  4.97019274
H  -0.43471597 -3.70669609 -0.77215812
H   1.25824061 -2.78755177 -2.46083431
H   1.75951708 -3.24505006 -0.92245193
H   1.12131709 -1.53452561  0.78396546
H   2.79595354 -0.31043866  1.83646572
H  -2.85880391 -3.31765911 -1.13461426
H  -2.91639489 -0.75846208 -2.13441237
H  -2.68540185 -3.08953813 -4.17999803
H  -3.94751470 -3.86549690 -3.27493442
H  -2.17996795 -5.62904045 -2.49896235
H  -1.05992356 -5.02964535 -3.61032950
H  -6.27427599 -0.12222368 -1.37473549
H  -4.86244250  0.49597145 -2.49850932
H  -3.75974240 -0.13147701  0.13913500
H  -3.56426959  1.30609409  1.83779122
H  -1.95644189  3.62005899  1.04187423
H  -3.87049476  3.61169391  2.62062412
H  -5.31921856  2.90433715  2.02417920
H  -4.41153263  4.22801692  1.09091571
H  -0.05538273  3.28491486 -0.73657115
H   0.26092477  3.27218811  1.03124856
H   1.38377043  1.43399394 -0.98635521
H   4.70557370 -0.32864776  0.15203093
H   3.77886044  1.08954547 -0.58929752
H   3.59388977  3.46740377  0.32612073
H   5.13031168  4.70018969  2.04137273
H   5.50534462 -0.62789416  2.70382317
H   6.10097484  3.85670328  4.72720224
H   6.35386849 -0.28861296  4.97011337
H   6.29380571  1.88860637  6.02328011
