70
pH=7.79 total_charge=-1 partial_charge_sum=-1.000000 method=gasteiger energy=-375.72893275
N   0.31203346 -2.81158038 -1.82533383
C   1.64537717 -2.36417347 -2.24692487
C   2.14753772 -1.09606384 -1.51957462
O   2.85707931 -0.40766808 -2.20261613
N   1.93903963 -0.90222940 -0.15149815
C   2.38680857  0.36184722  0.55116823
C  -0.78251700 -2.04536213 -2.02020853
C  -2.26070439 -2.66125321 -2.07052528
O  -0.78001851 -0.85489586 -2.13121203
N  -3.20094441 -1.64257763 -1.85652218
C  -2.19504367 -3.41028528 -3.47470410
C  -4.51599478 -1.81259955 -1.52756081
C  -1.25715246 -4.64022964 -3.53196720
C  -5.29237897 -0.55408774 -1.04693746
O  -5.14734401 -2.82832986 -1.59559701
C  -1.57273476 -5.84432900 -4.63417427
N  -4.60915742  0.59390438 -0.42714954
O  -0.48144542 -6.34225558 -5.06971405
O  -2.67370686 -6.03758242 -5.02997507
C  -5.03162271  1.87350058 -0.42149118
C  -4.30415677  2.83835670  0.46638305
O  -5.98612978  2.22244087 -1.15696683
N  -2.96128622  3.16691655 -0.05905264
C  -5.19021008  4.07899453  0.61510490
C  -2.04525357  2.11404376  0.05870697
C  -0.64502034  2.55568043 -0.40174285
O  -2.25242447  1.04915616  0.63822283
N   0.31042405  1.48950000 -0.25398462
C   1.49660250  1.61295616  0.37495962
O   1.85594882  2.70930934  0.84533192
C   3.90419552  0.77343301  0.30812924
C   4.46191013  1.42010245  1.54621091
C   4.58471332  2.74195061  1.75840058
C   5.01780990  0.79001266  2.76971600
N   5.04150887  3.00936445  3.04206595
C   5.31586291  1.81129678  3.63377194
C   5.01425133 -0.51611071  3.25512802
C   5.48633308  1.56488517  5.06482026
C   5.23029796 -0.78033694  4.57750073
C   5.54028173  0.22516213  5.50074899
H   0.20100670 -3.81581284 -1.96563338
H   1.74442636 -2.13680691 -3.36160852
H   2.39645304 -3.07832253 -1.97715285
H   1.07621142 -1.25830482  0.20013441
H   2.24045043  0.15194716  1.63930968
H  -2.37757543 -3.34831273 -1.24105804
H  -2.71813673 -0.74885605 -2.11884143
H  -1.98392293 -2.66904294 -4.24035666
H  -3.23099718 -3.69275948 -3.69615932
H  -1.21742127 -5.13944248 -2.57144107
H  -0.27435608 -4.30593707 -3.78670548
H  -6.00120916 -0.90875780 -0.34106603
H  -5.92892720 -0.41298901 -1.95504742
H  -3.94865603  0.48505548  0.29379960
H  -4.03241234  2.48617232  1.50715830
H  -2.77464846  3.84789874 -0.71331289
H  -5.01751652  4.65381580  1.50927658
H  -6.26872884  3.87372950  0.51605427
H  -5.05625812  4.63796560 -0.31559464
H  -0.61538417  2.99319413 -1.37457448
H  -0.38214527  3.33371314  0.33635292
H  -0.00077926  0.62737004 -0.83587248
H   4.36532298 -0.16322724  0.26439898
H   4.02516037  1.40284752 -0.57176354
H   4.10369245  3.51912829  1.21439477
H   5.49038328  3.89744941  3.17018961
H   4.63076263 -1.38695971  2.78291627
H   5.83298196  2.29805663  5.84027464
H   5.23156034 -1.79761102  4.94587357
H   5.75930699 -0.00010542  6.46282640
