70
pH=7.79 total_charge=-1 partial_charge_sum=-1.000000 method=gasteiger energy=-376.03752650
N   0.03886151 -2.64592809 -1.75063743
C   1.31055894 -2.15084399 -2.44510197
C   2.05547035 -1.05159622 -1.64555563
O   2.82626912 -0.32133061 -2.23661032
N   1.75333898 -0.84853115 -0.35037606
C   2.31083636  0.21919438  0.55582468
C  -1.04897626 -1.96238456 -2.11849629
C  -2.38540544 -2.68309973 -1.93588506
O  -0.90029628 -0.85456197 -2.56501392
N  -3.41424850 -1.66484415 -2.04182162
C  -2.49019906 -3.63938668 -3.23436563
C  -4.58172276 -1.74262467 -1.27564223
C  -1.23988992 -4.43147508 -3.79797533
C  -5.59944993 -0.60994418 -1.24617948
O  -4.80109474 -2.77650690 -0.65768775
C  -1.45501416 -5.70550347 -4.67026662
N  -5.12115209  0.25860808 -0.13286350
O  -0.65854644 -5.83299036 -5.63382336
O  -2.36544792 -6.39528081 -4.22258328
C  -4.94560687  1.63452473 -0.22233826
C  -4.01222020  2.17355313  0.85206674
O  -5.33446616  2.22613084 -1.23943862
N  -2.77239691  2.54626811  0.21377330
C  -4.85994656  3.33064265  1.48828381
C  -1.62718628  1.81781201  0.18966388
C  -0.49673141  2.55977317 -0.55514795
O  -1.56392802  0.74758097  0.75163603
N   0.68417681  1.66525128 -0.68263815
C   1.34125127  1.42226760  0.46033563
O   1.16685016  2.09242926  1.46650065
C   3.74366556  0.67604237  0.30408004
C   4.07969982  1.53549323  1.46650103
C   4.02388751  2.88019614  1.54405652
C   4.69517049  1.04189245  2.65886996
N   4.67204187  3.35928731  2.64047378
C   5.15156828  2.24833474  3.38844688
C   5.03421223 -0.16512816  3.13143949
C   5.96840517  2.16607418  4.41272394
C   5.80332507 -0.26950996  4.30073471
C   6.28043484  0.90543284  4.97348508
H  -0.03938388 -3.65825549 -1.69646178
H   1.06091546 -1.57190560 -3.39918078
H   1.95228076 -3.00392953 -2.70507522
H   0.76913389 -1.10992878 -0.11766719
H   2.23693156 -0.16274748  1.54156481
H  -2.39128446 -3.18425749 -0.96525812
H  -3.16169666 -0.88586326 -2.62807809
H  -2.67848343 -2.93079145 -4.04129955
H  -3.34482900 -4.44948459 -3.05545381
H  -0.63001036 -4.83781851 -2.95593408
H  -0.46651787 -3.82200418 -4.46526223
H  -6.57713946 -0.99366272 -1.19036669
H  -5.57850826 -0.01195168 -2.17064073
H  -4.68483097 -0.13319033  0.62516428
H  -3.81531960  1.47620402  1.65609488
H  -2.86916402  3.39956385 -0.27059581
H  -4.19641798  3.66657381  2.27466519
H  -5.75396488  2.93118346  1.94059201
H  -5.04197655  4.07783534  0.74912723
H  -0.84154203  2.95193017 -1.54826872
H  -0.29440877  3.47748792 -0.03449006
H   0.65330656  0.93190235 -1.44340455
H   4.40000635 -0.20091784  0.37263058
H   3.87881674  1.11259918 -0.71808687
H   3.49572066  3.54493012  0.86705051
H   4.58751611  4.31782810  2.87973543
H   4.64634089 -1.07830171  2.51137264
H   6.36997252  3.10412156  4.78405293
H   5.95154942 -1.21125873  4.78435838
H   6.95364421  0.87526375  5.77786379
