70
pH=7.79 total_charge=-1 partial_charge_sum=-1.000000 method=gasteiger energy=-374.82268275
N   0.21233398 -2.49258674 -1.74372598
C   1.47757969 -2.22187980 -2.23498061
C   2.12098505 -0.94968920 -1.59044281
O   2.78359281 -0.15389185 -2.21626888
N   1.83709082 -0.81171682 -0.18170347
C   2.16254296  0.26636019  0.65768367
C  -0.83747319 -1.82539367 -2.21212092
C  -2.21436708 -2.54460577 -2.09101744
O  -0.71039068 -0.73775391 -2.67382348
N  -3.25737044 -1.60057175 -2.10945146
C  -2.32547758 -3.52685283 -3.35723367
C  -4.52797704 -1.73479275 -1.53901317
C  -1.32634105 -4.73090200 -3.32544669
C  -5.42770923 -0.54516777 -1.66860276
O  -4.91229089 -2.62900960 -0.81424994
C  -1.49864950 -5.86221991 -4.26634340
N  -4.79686417  0.33351395 -0.55112866
O  -0.40275885 -6.20696935 -4.75209900
O  -2.63673580 -6.38392913 -4.24563784
C  -5.05816881  1.59778942 -0.38523084
C  -4.16473730  2.52658230  0.62735420
O  -5.96003490  2.07963624 -1.00483457
N  -2.84917643  2.72051606 -0.06281403
C  -4.82112805  3.87360578  0.70580528
C  -1.74255886  2.05213104  0.20815443
C  -0.60347381  2.57183388 -0.74493391
O  -1.61608651  1.14595500  0.94746842
N   0.50143186  1.62102156 -0.56204467
C   1.22264833  1.45325756  0.55553860
O   1.26991215  2.36377312  1.34321626
C   3.58363305  0.84540576  0.29381955
C   4.34390295  1.56618297  1.47700588
C   4.74801111  2.83658148  1.51755846
C   4.80488305  0.85021211  2.64164670
N   5.42456036  3.08031122  2.71345845
C   5.38408231  1.85399716  3.36618092
C   4.59956549 -0.41569420  3.10911819
C   5.90287244  1.63265342  4.66659339
C   4.95071052 -0.67142959  4.44031639
C   5.62430860  0.30141986  5.14051106
H  -0.05900168 -3.51523603 -1.80611260
H   1.58446902 -2.09863985 -3.25700033
H   2.02590822 -3.12064286 -1.99367747
H   1.19352483 -1.51861443  0.23358727
H   2.20812732 -0.06828553  1.63043824
H  -2.31652152 -3.14600253 -1.19933430
H  -3.16557894 -0.75430877 -2.74952066
H  -2.39235567 -2.97201768 -4.29718994
H  -3.23153689 -4.17955148 -3.19696269
H  -1.38399389 -5.17423643 -2.22637015
H  -0.26986608 -4.32356203 -3.48893283
H  -6.39700538 -0.70737426 -1.39191280
H  -5.31026837 -0.03414609 -2.69222311
H  -3.85485360  0.10547322 -0.26609770
H  -4.10107295  2.11876787  1.63975065
H  -2.93552143  3.29928294 -0.81748600
H  -4.38401456  4.28090671  1.56326132
H  -5.91434476  3.97037759  0.91802861
H  -4.56598555  4.45715730 -0.25497661
H  -0.94557950  2.55843892 -1.73252316
H  -0.40696648  3.61598868 -0.41575191
H   0.24414278  0.80002877 -1.17828912
H   4.13282552 -0.00364048 -0.02269260
H   3.51740016  1.56998567 -0.49016169
H   4.81020522  3.53693069  0.71850025
H   5.29937335  3.92714452  3.21719356
H   3.92034051 -1.07421743  2.61218384
H   6.54621069  2.21605767  5.30300903
H   4.62868698 -1.66686226  4.87434926
H   5.98376351  0.22269114  6.12155152
