70
pH=7.79 total_charge=-1 partial_charge_sum=-1.000000 method=gasteiger energy=-375.11174525
N   0.28150668 -2.74249208 -1.83326483
C   1.64482570 -2.34551886 -2.12585918
C   2.20110928 -1.02506794 -1.62503766
O   2.86501306 -0.19386635 -2.22129343
N   1.84370211 -0.75140740 -0.34944174
C   2.39688113  0.33828988  0.52218449
C  -0.81166933 -1.95378790 -1.96174069
C  -2.11727335 -2.69477605 -2.07546420
O  -0.70951972 -0.74389493 -2.09788509
N  -3.17140229 -1.74103775 -1.84083588
C  -2.16107221 -3.57425647 -3.39745523
C  -4.45578589 -1.84103443 -1.55976718
C  -1.26541901 -4.74477923 -3.58704701
C  -5.30562225 -0.56084808 -1.16520950
O  -5.08252693 -2.94870313 -1.62410146
C  -1.64623266 -5.79274938 -4.66811867
N  -4.60162962  0.49675230 -0.45096614
O  -0.56007339 -6.40436905 -5.00295379
O  -2.79424593 -6.02333640 -4.88812086
C  -5.07338003  1.81476714 -0.49311827
C  -4.34009899  2.82175358  0.38371088
O  -5.98990962  2.14474885 -1.15667701
N  -2.96902674  3.14201683 -0.01929995
C  -5.04056022  4.20631133  0.72012850
C  -1.93544756  2.30843625  0.13286228
C  -0.57418349  2.45784374 -0.54487629
O  -2.17472319  1.19203386  0.55201969
N   0.34196993  1.40594862 -0.20965606
C   1.50104510  1.60171408  0.48302685
O   1.77482965  2.64813526  1.02259872
C   3.83133892  0.85740840  0.27425899
C   4.38250189  1.39305794  1.50255048
C   4.70377409  2.73833736  1.74187047
C   4.63205045  0.77220605  2.80314765
N   5.17808648  2.95260164  3.01447266
C   5.13632967  1.74410664  3.65461939
C   4.67026367 -0.53043064  3.35439844
C   5.59611992  1.57723034  4.97830464
C   5.31848139 -0.80318233  4.51894860
C   5.67722302  0.29289301  5.43523327
H   0.12299960 -3.64455431 -1.41466999
H   1.87139894 -2.36561735 -3.32872967
H   2.41154055 -3.06880101 -1.71350404
H   1.73111824 -1.56758410  0.15395474
H   2.25263305  0.06552090  1.58619551
H  -2.16136552 -3.41544151 -1.13366943
H  -2.71595320 -0.91029508 -1.63793470
H  -2.14126445 -2.89258271 -4.22150671
H  -3.21376091 -3.81583408 -3.39391026
H  -1.36418420 -5.25811344 -2.63898111
H  -0.20547456 -4.38112156 -3.75044725
H  -6.15325126 -0.84056862 -0.51337352
H  -5.80892723 -0.25063194 -2.12093132
H  -3.77684105  0.33090877  0.15465097
H  -4.20441940  2.40522551  1.41125396
H  -2.78701900  4.15993393 -0.11216470
H  -4.61853616  4.85369232  1.54617796
H  -6.05008234  3.91450883  1.05653196
H  -5.28721957  4.68890192 -0.29152597
H  -0.77651274  2.38934930 -1.64661572
H  -0.14037735  3.41999255 -0.47378332
H   0.10767594  0.52981535 -0.53477816
H   4.51402645 -0.05083305 -0.07711537
H   3.89528674  1.62341077 -0.54650717
H   4.80509297  3.48276004  0.94311037
H   5.44421050  3.81040939  3.39626353
H   4.44955720 -1.46607423  2.86658589
H   5.76788249  2.39973900  5.64244682
H   5.26977199 -1.81532037  4.94900125
H   6.10310549  0.06482484  6.42687884
