70
pH=7.79 total_charge=-1 partial_charge_sum=-1.000000 method=gasteiger energy=-375.20158900
N  -0.10028956 -2.70865812 -1.49070025
C   1.21792819 -2.35517521 -1.85383188
C   1.79154271 -1.08468976 -1.15887308
O   2.34174065 -0.20851906 -1.86056907
N   1.78578888 -1.01651160  0.17228449
C   2.35578652  0.08253111  0.90372047
C  -1.15831240 -2.06505166 -2.24057510
C  -2.45352895 -2.78104609 -2.46795294
O  -0.98762138 -0.92925962 -2.74643376
N  -3.50973394 -1.73682983 -2.39681729
C  -2.39361017 -3.50323689 -3.79818794
C  -4.51260310 -1.88560309 -1.51047481
C  -1.57564379 -4.78291940 -3.62226584
C  -5.30257258 -0.62700848 -1.23580976
O  -4.61771493 -2.86095702 -0.69840879
C  -1.79630706 -5.89037900 -4.88917776
N  -4.66696577  0.15499202 -0.21572080
O  -0.97687620 -5.72417142 -5.77194962
O  -2.87843076 -6.44469962 -4.75736987
C  -4.73918862  1.48152624 -0.15038343
C  -3.76378912  2.13823649  0.92647574
O  -5.31295464  2.05552899 -1.03798435
N  -2.53906754  2.62478944  0.47972356
C  -4.48087290  3.17432082  1.81746430
C  -1.46406319  1.92633604  0.01916532
C  -0.22833488  2.67720261 -0.41796393
O  -1.53507653  0.69385604 -0.17079817
N   0.95932631  1.82291200 -0.38477847
C   1.25196386  1.27561690  0.82573696
O   0.64016645  1.67865952  1.75288767
C   3.72113508  0.50590696  0.34992455
C   4.33611408  1.51875845  1.28618158
C   3.97246133  2.75722348  1.24673233
C   5.10983831  1.37193549  2.47592278
N   4.48071603  3.47603858  2.33693744
C   5.14710040  2.57233994  3.16958501
C   5.42443935  0.21036653  3.22278338
C   5.70785570  2.63589564  4.42501317
C   5.99887620  0.30177611  4.46518590
C   6.16795166  1.52582007  5.10170478
H  -0.14337630 -3.72272509 -1.52481112
H   1.49780642 -1.96241353 -2.93474997
H   1.89533247 -3.20611474 -1.80626220
H   1.30425701 -1.78432223  0.62608633
H   2.38455358 -0.27794371  1.92574832
H  -2.72816970 -3.50097577 -1.67603118
H  -3.43167424 -0.82322502 -2.85189500
H  -1.96543628 -2.89196535 -4.60683382
H  -3.36824497 -3.95265535 -4.09399044
H  -1.78419516 -5.29671129 -2.63446095
H  -0.52827908 -4.34471835 -3.68283673
H  -6.35795101 -0.74914687 -0.95047931
H  -5.39554039  0.04583692 -2.15644912
H  -4.02921018 -0.23630344  0.37866618
H  -3.53513806  1.26110746  1.57290155
H  -2.29439448  3.57706379  0.63080849
H  -4.05014074  3.17593880  2.77551700
H  -5.48159637  2.82039019  2.04168131
H  -4.54499609  4.11007970  1.22679425
H  -0.39626089  3.05079642 -1.35529852
H  -0.05054647  3.58046652  0.18700418
H   1.26709473  1.38005949 -1.28929586
H   4.36414895 -0.38908985  0.24789673
H   3.56778540  0.82214655 -0.70412299
H   3.40630256  3.23537411  0.44726568
H   4.48427317  4.46211586  2.52777770
H   5.14000829 -0.69812043  2.66545084
H   5.94775661  3.67215162  4.92434714
H   6.47250888 -0.60030690  4.94541676
H   6.71421586  1.53355498  6.00039022
