70
pH=7.79 total_charge=-1 partial_charge_sum=-1.000000 method=gasteiger energy=-374.79924525
N   0.27315556 -2.49531543 -1.74082485
C   1.52605556 -2.16709278 -2.27977111
C   2.13753903 -0.87412825 -1.58636207
O   2.75860234 -0.10805724 -2.25854274
N   1.76136879 -0.70123635 -0.25150156
C   2.18589576  0.45069552  0.53380705
C  -0.89238424 -1.74373266 -2.03245567
C  -2.28219792 -2.60841157 -2.05327362
O  -0.86585572 -0.61089003 -2.50625713
N  -3.38922885 -1.62283317 -2.16643611
C  -2.24464665 -3.66858508 -3.21127122
C  -4.49933699 -1.81804571 -1.42783891
C  -1.07012147 -4.72376224 -3.21985698
C  -5.46363814 -0.59952763 -1.52020853
O  -4.64759059 -2.84331073 -0.77533073
C  -1.34405485 -5.77571316 -4.34258485
N  -5.15432103  0.26904452 -0.39900939
O  -0.39862714 -5.79581439 -5.13298676
O  -2.35972480 -6.48411220 -4.23436235
C  -5.13443972  1.61498425 -0.41714122
C  -4.24896618  2.29461259  0.78034635
O  -5.69306029  2.25037639 -1.32970357
N  -3.17332521  2.67282170 -0.05798182
C  -4.79523167  3.44843810  1.51547530
C  -1.99700348  1.99574588  0.07472606
C  -0.85684294  2.53989317 -0.81853715
O  -1.89013187  1.07575522  0.82468254
N   0.35724037  1.72693379 -0.74840571
C   1.08674738  1.59605986  0.40449842
O   0.96242367  2.35733356  1.36452911
C   3.62901500  0.74151713  0.26856745
C   4.30706260  1.45683610  1.38128184
C   4.47941820  2.79547938  1.51412043
C   4.78868034  0.91122825  2.68083686
N   5.13318789  3.10517214  2.73694432
C   5.37606394  1.94498229  3.48371158
C   5.03288787 -0.38197163  3.04476338
C   6.00952093  1.68462530  4.69354650
C   5.75624259 -0.67682926  4.16949019
C   6.18533053  0.33923587  5.08072491
H   0.13186983 -3.52997913 -1.47896772
H   1.30822055 -1.69568351 -3.20110746
H   2.20209961 -3.09270527 -2.32762676
H   0.88132576 -1.11534522 -0.06193844
H   1.89811442  0.13654316  1.52209773
H  -2.43379248 -3.27416967 -1.13796712
H  -3.02285573 -0.78236371 -2.72710224
H  -2.41859952 -3.39595401 -4.35243638
H  -3.17623656 -4.26444847 -2.93902510
H  -0.87218530 -5.11414453 -2.28005762
H  -0.15183883 -4.10419122 -3.59362813
H  -6.51567843 -0.98104241 -1.42830870
H  -5.10365119  0.05434569 -2.34597137
H  -4.79271594 -0.18380892  0.42370063
H  -3.83082397  1.59247740  1.44144879
H  -3.34238633  3.35603316 -0.79153526
H  -3.87066409  3.90358103  1.94184376
H  -5.39824269  3.21862304  2.39029337
H  -5.30214085  4.28943473  0.96530521
H  -1.09964003  2.73053322 -1.78732874
H  -0.48812501  3.46325076 -0.30751451
H   0.56569477  0.86658424 -1.33459181
H   4.18572840 -0.24734347  0.25445419
H   3.69308903  1.10576561 -0.68683224
H   4.06778751  3.56090603  0.86689229
H   5.06048852  4.00521087  3.15697504
H   4.79363889 -1.14196020  2.29910647
H   6.21727897  2.56518670  5.21483991
H   5.97814896 -1.80372588  4.42779079
H   6.54819653  0.14081212  6.11804127
