70
pH=7.79 total_charge=-1 partial_charge_sum=-1.000000 method=gasteiger energy=-375.26799525
N  -0.01883248 -2.67528639 -1.54319390
C   1.32489501 -2.38304757 -1.98826408
C   2.10620399 -1.20710703 -1.35193676
O   3.13813136 -0.74590423 -1.82574622
N   1.81560638 -0.93375269 -0.05610754
C   2.33565544  0.23137024  0.63237368
C  -1.04796120 -1.81100310 -1.91762271
C  -2.39067460 -2.57688608 -2.05947804
O  -0.99134197 -0.66636681 -2.19135383
N  -3.36928731 -1.49515389 -2.13229748
C  -2.40542982 -3.37902342 -3.40663993
C  -4.62560344 -1.69595487 -1.68253769
C  -1.39448121 -4.45352807 -3.56844473
C  -5.48633947 -0.45558386 -1.48960272
O  -4.90119828 -2.84772551 -1.47784825
C  -1.51157997 -5.54458633 -4.68910687
N  -4.74157678  0.47272119 -0.63523328
O  -0.38448569 -6.10732769 -4.91770221
O  -2.60302739 -5.73055297 -5.09204162
C  -5.06288030  1.76014572 -0.67468998
C  -4.29467671  2.65311803  0.31957922
O  -6.08846657  2.14801569 -1.27732519
N  -2.92217594  2.89282751 -0.07234596
C  -5.07174650  4.01563718  0.61145995
C  -1.88719658  2.13891595  0.36200829
C  -0.48794241  2.58820472 -0.20102643
O  -2.00450565  1.16821222  1.11207214
N   0.41050248  1.51041570 -0.23977331
C   1.66623316  1.55054243  0.19710320
O   2.13789282  2.63373593  0.53084063
C   3.84710960  0.46654279  0.46529929
C   4.46080599  1.25002014  1.54556244
C   4.67889498  2.61918724  1.61465950
C   4.88855632  0.68584709  2.77812637
N   5.09726666  2.92409801  2.82073876
C   5.19391631  1.76254456  3.55876260
C   5.12477854 -0.55502253  3.30127022
C   5.45618232  1.61278773  4.88491102
C   5.67098079 -0.77572120  4.57904565
C   5.64960680  0.40176907  5.40093487
H  -0.39407181 -3.67402157 -1.50504928
H   1.30604961 -1.97887315 -3.06476573
H   1.96257433 -3.28341161 -1.71102819
H   0.90417100 -1.32581956  0.14466861
H   2.17987425  0.20816499  1.77497297
H  -2.64836112 -3.04541977 -1.06927047
H  -2.95616870 -0.59479856 -2.15562777
H  -2.34446458 -2.61152515 -4.13142828
H  -3.39571282 -3.83477559 -3.39326370
H  -1.21672902 -5.07033820 -2.71037769
H  -0.46597760 -4.02696844 -3.77368738
H  -6.38791553 -0.73567095 -1.04999488
H  -5.73420826  0.08677093 -2.47075258
H  -4.10135211  0.00470640 -0.00826775
H  -4.22484279  2.03968300  1.29636456
H  -2.78209854  3.65658141 -0.71580148
H  -4.32713824  4.77249600  0.90360923
H  -5.91093747  4.02651849  1.29353022
H  -5.68277135  4.27432614 -0.26656440
H  -0.68381992  3.05343711 -1.13619736
H  -0.26140307  3.26450884  0.59981870
H  -0.00168531  0.63905776 -0.66774906
H   4.21943528 -0.58796800  0.70665361
H   4.14905349  0.71069268 -0.57318017
H   4.38534988  3.32464947  0.82752315
H   5.65239508  3.72474583  3.00542410
H   5.07057370 -1.39356284  2.57685453
H   5.39425213  2.38918337  5.59244692
H   5.78582499 -1.77956007  4.98508056
H   5.95498021  0.19618736  6.42787965
