70
pH=7.79 total_charge=-1 partial_charge_sum=-1.000000 method=gasteiger energy=-375.09221400
N  -0.31680508 -2.71954212 -1.23601785
C   1.10366225 -2.49824196 -1.51139598
C   1.75500393 -1.25690473 -0.98529324
O   2.21939499 -0.49712326 -1.81486260
N   2.00872067 -1.17075047  0.31581170
C   2.53076471  0.03545690  0.88929047
C  -1.18526076 -2.32649400 -2.20688525
C  -2.59116751 -2.91903064 -2.22859860
O  -0.86478273 -1.49250215 -2.95765883
N  -3.43152633 -1.70118945 -2.18821218
C  -3.01983131 -3.77099776 -3.42261848
C  -4.71199134 -1.65361262 -1.71731582
C  -2.06490570 -5.08010298 -3.62572320
C  -5.24063066 -0.14280645 -1.59996318
O  -5.35914180 -2.57236678 -1.36858211
C  -2.47653380 -5.86746305 -4.85852887
N  -4.50969245  0.32981677 -0.39773687
O  -1.58586000 -6.20392707 -5.79602381
O  -3.68359325 -6.24976352 -4.76249331
C  -4.31742493  1.61299529 -0.22809524
C  -3.54240506  2.17283342  1.11838450
O  -4.74445726  2.45937939 -0.98367224
N  -2.16713069  2.70749858  0.72578086
C  -4.39719428  3.34175170  1.50484437
C  -1.18002114  1.96677796  0.12418210
C   0.13836929  2.73738435 -0.16273536
O  -1.30556650  0.84135791 -0.07565084
N   1.35430959  1.98728766 -0.02935966
C   1.44541931  1.18691616  1.08742225
O   0.83940436  1.25525929  2.14120642
C   3.87846892  0.48390808  0.29112444
C   4.34062118  1.63559041  1.11561672
C   4.23673297  2.96775492  1.01919687
C   4.96944898  1.37375862  2.42152751
N   4.75986721  3.63669834  2.13572623
C   5.17955195  2.62688873  2.99972726
C   5.47214435  0.30574186  3.12401227
C   5.66724968  2.82002320  4.30140276
C   6.13609436  0.51027344  4.35732173
C   6.26415007  1.79708442  4.91308137
H  -0.59976577 -3.40594672 -0.55611043
H   1.38736406 -2.66551687 -2.56040003
H   1.55269144 -3.24832069 -0.89161234
H   1.53392448 -1.85768765  0.85535091
H   2.84502204 -0.20865115  1.85694132
H  -2.90057901 -3.42187291 -1.30368113
H  -3.00723051 -0.96760974 -2.73606465
H  -3.03524845 -3.12674297 -4.30723694
H  -3.95620860 -4.27008877 -3.27257689
H  -2.20192306 -5.69223787 -2.72549683
H  -1.07884250 -4.59143181 -3.90480085
H  -6.35815066 -0.00663727 -1.58414677
H  -4.93025554  0.55134762 -2.36698005
H  -4.44671520 -0.40442628  0.34854579
H  -3.38571522  1.38822148  1.86719131
H  -2.06672704  3.59384766  1.14143843
H  -4.17024722  3.62394548  2.54078957
H  -5.43096162  3.18402471  1.36438224
H  -4.17605732  4.12338605  0.87153011
H   0.10844834  3.32155891 -1.12552417
H   0.18412677  3.56314990  0.55194584
H   1.75315893  1.65779980 -0.87403524
H   4.55572134 -0.36091986  0.19159473
H   3.76794846  0.83444645 -0.74154683
H   3.67882043  3.43300158  0.20552892
H   4.44505974  4.55656089  2.48121561
H   5.43521548 -0.72451393  2.82229643
H   5.77073371  3.88851215  4.60794951
H   6.55294618 -0.37314717  4.86490025
H   6.72974716  1.90923371  5.88994293
