70
pH=7.79 total_charge=-1 partial_charge_sum=-1.000000 method=gasteiger energy=-375.73283900
N  -0.14682006 -2.95458213 -1.20728947 -0.34525228
C   1.29992482 -2.82133895 -1.35568908  0.09671504
C   1.75507673 -1.48538121 -0.85463561  0.23955653
O   1.82700673 -0.52182756 -1.66140393 -0.27304466
N   2.07812748 -1.31101348  0.53566161 -0.34244545
C   2.56745127 -0.06724914  1.14461793  0.11181629
C  -1.07234890 -2.33076544 -2.11060442  0.24252542
C  -2.53497052 -2.70520635 -2.07780145  0.10807498
O  -0.65722074 -1.51107252 -2.97531048 -0.27271322
N  -3.36885914 -1.50001557 -2.00257631 -0.34276031
C  -2.91684372 -3.52994025 -3.32261057 -0.01843900
C  -4.72919710 -1.54100216 -1.54636255  0.23954661
C  -2.21493396 -4.89457063 -3.35190655 -0.01066978
C  -5.54973480 -0.29003127 -1.51651478  0.09671467
O  -5.22986348 -2.61995164 -1.12750319 -0.27304483
C  -2.66145633 -5.68707161 -4.53937844  0.04147744
N  -5.17199378  0.51356815 -0.35766652 -0.34526188
O  -2.05840138 -5.57499607 -5.63903034 -0.55017023
O  -3.77480841 -6.51246718 -4.44578012 -0.55017023
C  -4.29570997  1.64570941 -0.44833016  0.24222563
C  -3.71362414  2.24054723  0.80642471  0.10491539
O  -4.05030136  2.17332535 -1.56784195 -0.27272574
N  -2.41588903  2.86944281  0.53505638 -0.34305851
C  -4.69123529  3.25864982  1.39816208 -0.03562148
C  -1.25841276  2.10837045  0.16201638  0.23953655
C   0.07979557  2.78764805  0.08630322  0.09671487
O  -1.37026512  0.88774153 -0.13883084 -0.27304502
N   1.17561973  1.81959716  0.06747360 -0.34524184
C   1.47138652  0.97429475  1.19210960  0.24286036
O   0.77917214  1.07100223  2.24221780 -0.27269960
C   3.88049792  0.41201282  0.48974168  0.00378390
C   4.46315416  1.58854886  1.22000406 -0.02006735
C   4.32808770  2.93040304  0.87503266  0.00499264
C   5.16178792  1.57778395  2.41134375  0.00265260
N   4.92515133  3.71764250  1.79871631 -0.36088847
C   5.42725484  2.88559149  2.72765297  0.04563014
C   5.56671128  0.52595814  3.23358301 -0.05256237
C   6.11928641  3.23245841  3.88725331 -0.03800302
C   6.26863585  0.84616514  4.40995937 -0.06150923
C   6.54414978  2.19307386  4.73510142 -0.06015891
H  -0.50853298 -3.60813030 -0.47665179  0.16359031
H   1.58667065 -2.95543616 -2.42150071  0.05947612
H   1.80611962 -3.62180969 -0.77440282  0.05947612
H   1.95995078 -2.13599888  1.16680210  0.16388248
H   2.82298853 -0.30531561  2.20271270  0.06357388
H  -2.72180512 -3.31808351 -1.16823523  0.06322669
H  -2.98490142 -0.58145548 -2.32234943  0.16386967
H  -2.66506427 -2.95758655 -4.24324968  0.02967970
H  -4.01611162 -3.69870103 -3.32200395  0.02967970
H  -2.45556700 -5.46199174 -2.42695836  0.03294112
H  -1.11264044 -4.75949504 -3.39866085  0.03294112
H  -6.62843532 -0.54714340 -1.44347380  0.05947612
H  -5.40663600  0.27403058 -2.46262142  0.05947612
H  -5.43744716  0.15864239  0.58899358  0.16359013
H  -3.56386918  1.43252917  1.55622439  0.06291522
H  -2.30171590  3.89919482  0.67828581  0.16385665
H  -4.27400677  3.68143074  2.33682440  0.02566879
H  -5.65945411  2.76824856  1.63661122  0.02566879
H  -4.87317354  4.08773510  0.68061961  0.02566879
H   0.11211902  3.40140180 -0.83911994  0.05947612
H   0.20532762  3.46860659  0.95532935  0.05947612
H   1.78496722  1.80245455 -0.77796363  0.16359051
H   4.61793376 -0.41910124  0.51288349  0.03434154
H   3.73795178  0.67811424 -0.57615623  0.03434154
H   3.81237614  3.30944286  0.00246959  0.08187313
H   4.97290340  4.76077348  1.79383388  0.16593664
H   5.35053775 -0.50354144  2.97947731  0.06299117
H   6.32171022  4.26756741  4.13013246  0.06449098
H   6.59866509  0.05515180  5.07065206  0.06229287
H   7.08375100  2.42741396  5.64343353  0.06234623
