      -----------------------------------------------------------      
     |                   =====================                   |     
     |                           x T B                           |     
     |                   =====================                   |     
     |                         S. Grimme                         |     
     |          Mulliken Center for Theoretical Chemistry        |     
     |                    University of Bonn                     |     
      -----------------------------------------------------------      

   * xtb version 6.7.1 (26dd68d) compiled by 'froitzheim@fs7' on 2026-05-14

   xtb is free software: you can redistribute it and/or modify it under
   the terms of the GNU Lesser General Public License as published by
   the Free Software Foundation, either version 3 of the License, or
   (at your option) any later version.
   
   xtb is distributed in the hope that it will be useful,
   but WITHOUT ANY WARRANTY; without even the implied warranty of
   MERCHANTABILITY or FITNESS FOR A PARTICULAR PURPOSE.  See the
   GNU Lesser General Public License for more details.
   
   Cite this work as:
   * C. Bannwarth, E. Caldeweyher, S. Ehlert, A. Hansen, P. Pracht,
     J. Seibert, S. Spicher, S. Grimme, WIREs Comput. Mol. Sci., 2020, 11,
     e01493. DOI: 10.1002/wcms.1493
   
   for g-xTB:
   * T. Froitzheim, M. Müller, A. Hansen, S. Grimme, ChemRxiv, 2025, preprint.
     DOI: 10.26434/chemrxiv-2025-bjxv
   for GFN2-xTB:
   * C. Bannwarth, S. Ehlert and S. Grimme., J. Chem. Theory Comput., 2019,
     15, 1652-1671. DOI: 10.1021/acs.jctc.8b01176
   for GFN1-xTB:
   * S. Grimme, C. Bannwarth, P. Shushkov, J. Chem. Theory Comput., 2017,
     13, 1989-2009. DOI: 10.1021/acs.jctc.7b00118
   for GFN0-xTB:
   * P. Pracht, E. Caldeweyher, S. Ehlert, S. Grimme, ChemRxiv, 2019, preprint.
     DOI: 10.26434/chemrxiv.8326202.v1
   for GFN-FF:
   * S. Spicher and S. Grimme, Angew. Chem. Int. Ed., 2020, 59, 15665-15673.
     DOI: 10.1002/anie.202004239
   
   for ALPB and GBSA implicit solvation:
   * S. Ehlert, M. Stahn, S. Spicher, S. Grimme, J. Chem. Theory Comput.,
     2021, 17, 4250-4261. DOI: 10.1021/acs.jctc.1c00471
   
   for ddCOSMO and CPCM-X implicit solvation:
   * M. Stahn, S. Ehlert, S. Grimme, J. Phys. Chem. A,
     2023, XX, XXXX-XXXX. DOI: 10.1021/acs.jpca.3c04382
   
   for DFT-D4:
   * E. Caldeweyher, C. Bannwarth and S. Grimme, J. Chem. Phys., 2017,
     147, 034112. DOI: 10.1063/1.4993215
   * E. Caldeweyher, S. Ehlert, A. Hansen, H. Neugebauer, S. Spicher,
     C. Bannwarth and S. Grimme, J. Chem. Phys., 2019, 150, 154122.
     DOI: 10.1063/1.5090222
   * E. Caldeweyher, J.-M. Mewes, S. Ehlert and S. Grimme, Phys. Chem. Chem. Phys.
     2020, 22, 8499-8512. DOI: 10.1039/D0CP00502A
   
   for sTDA-xTB:
   * S. Grimme and C. Bannwarth, J. Chem. Phys., 2016, 145, 054103.
     DOI: 10.1063/1.4959605
   
   in the mass-spec context:
   * V. Asgeirsson, C. Bauer and S. Grimme, Chem. Sci., 2017, 8, 4879.
     DOI: 10.1039/c7sc00601b
   * J. Koopman and S. Grimme, ACS Omega 2019, 4, 12, 15120-15133.
     DOI: 10.1021/acsomega.9b02011
   
   for metadynamics refer to:
   * S. Grimme, J. Chem. Theory Comput., 2019, 155, 2847-2862
     DOI: 10.1021/acs.jctc.9b00143
   
   for SPH calculations refer to:
   * S. Spicher and S. Grimme, J. Chem. Theory Comput., 2021, 17, 1701-1714
     DOI: 10.1021/acs.jctc.0c01306
   
   for ONIOM refer to:
   * C. Plett, A. Katbashev, S. Ehlert, S. Grimme, M. Bursch,
     Phys. Chem. Chem. Phys., 2023, 25, 17860-17868. DOI: 10.1039/D3CP02178E
   
   for DIPRO refer to:
   * J. Kohn, N. Gildemeister, S. Grimme, D. Fazzi, A. Hansen,
     J. Chem. Phys. 159, 144106 (2023). DOI: 10.1063/5.0167484
   
   for PTB refer to:
   * S. Grimme, M. Mueller, A. Hansen, J. Chem. Phys., 2023, 158, 124111.
     DOI: 10.1063/5.0137838
   
   with help from (in alphabetical order)
   P. Atkinson, C. Bannwarth, F. Bohle, G. Brandenburg, E. Caldeweyher,
   M. Checinski, S. Dohm, S. Ehlert, S. Ehrlich, M. Friede, T. Froitzheim,
   I. Gerasimov, C. Hölzer, A. Katbashev, J. Kohn, J. Koopman, C. Lavigne,
   S. Lehtola, F. März, M. Müller, F. Musil, H. Neugebauer, J. Pisarek,
   C. Plett, P. Pracht, F. Pultar, J. Seibert, P. Shushkov, S. Spicher,
   M. Stahn, M. Steiner, T. Strunk, J. Stückrath, T. Rose, and J. Unsleber
   
 * started run on 2026/05/23 at 12:43:35.936     
   ID    Z sym.   atoms
    1    7 N      1, 5, 10, 18, 29, 37, 45, 48
    2    6 C      2, 3, 6-8, 11-14, 16, 17, 19-25, 27, 28, 30-33, 35, 36,
                  38-43, 46, 47, 49-56
    3    8 O      4, 9, 15, 26, 34, 44
    4    1 H      57-114

           -------------------------------------------------
          |                Calculation Setup                |
           -------------------------------------------------

          program call               : /home/xchen/software/xtb-6.7.1-gxtb/bin/xtb /home/xchen/Test/benchmark/md_sampled/10_6_0573_0/snap_0096.xyz --charge 0 --gxtb --norestart
          coordinate file            : /home/xchen/Test/benchmark/md_sampled/10_6_0573_0/snap_0096.xyz
          omp threads                :                    48

core increment energy         -2.2833104851216E+03 Eh
dispersion energy              2.6552113876459E-02 Eh
molecular charge               0.0000000000000E+00 e
number of electrons            3.0199999999720E+02 e
number of unpaired electrons   0.0000000000000E+00 e
wavefunction                   restricted
integral cutoff                2.6907767250513E+01 bohr
energy convergence             1.0000000000000E-06 Eh
density convergence            2.0000000000000E-05 e

------------------------------------------------------------
  cycle        total energy    energy error   density error
------------------------------------------------------------
      1     -2523.649949106  -2.4036602E+02   0.0000000E+00
      2     -2523.997006807  -3.4705770E-01   1.7879358E-02
      3     -2524.211512909  -2.1450610E-01   1.4123211E-02
      4     -2524.641550500  -4.3003759E-01   1.1229010E-02
      5     -2524.650821677  -9.2711767E-03   9.5098596E-04
      6     -2524.651355394  -5.3371751E-04   1.5394334E-04
      7     -2524.651425874  -7.0479420E-05   5.9062068E-05
      8     -2524.651430499  -4.6259353E-06   1.3004215E-05
      9     -2524.651431265  -7.6585994E-07   3.3790535E-06
------------------------------------------------------------

electronic energy             -2.4136749825761E+02 Eh
total energy                  -2.5246514312653E+03 Eh

Post processing:
 | Mayer-Wiberg bond orders
 | Molecular Multipole Moments

 total:                                  15.949 sec
 - increment                              0.000 sec (  0%)
 - repulsion                              0.009 sec (  0%)
 - dispersion                             0.417 sec (  2%)
 - coulomb                                0.320 sec (  2%)
 - exchange                               0.008 sec (  0%)
 - hamiltonian                            0.442 sec (  2%)
 - acp                                    0.320 sec (  2%)
 - spin polarization                      0.000 sec (  0%)
 - post processing                        0.241 sec (  1%)
 - scc                                   12.600 sec ( 79%)
 - coulomb gradient                       0.101 sec (  0%)
 - dispersion gradient                    0.068 sec (  0%)
 - exchange gradient                      0.218 sec (  1%)
 - repulsion gradient                     0.035 sec (  0%)
 - acp gradient                           0.471 sec (  2%)
 - hamiltonian gradient                   0.929 sec (  5%)
 - gradient                               1.822 sec ( 11%)

         :::::::::::::::::::::::::::::::::::::::::::::::::::::
         ::                     SUMMARY                     ::
         :::::::::::::::::::::::::::::::::::::::::::::::::::::
         :: total energy           -2524.651431265331 Eh    ::
         :: gradient norm              0.432833735897 Eh/a0 ::
         :: HOMO-LUMO gap              8.505216908736 eV    ::
         ::.................................................::
         :: add. restraining           0.000000000000 Eh    ::
         :: total charge              -0.000000000000 e     ::
         :::::::::::::::::::::::::::::::::::::::::::::::::::::

           -------------------------------------------------
          |                Property Printout                |
           -------------------------------------------------

    * Orbital Energies and Occupations
------------------------------------------------------------------
      #    Occupation            Energy/Eh            Energy/eV
------------------------------------------------------------------
      1        2.0000           -1.3516789             -36.7811
    ...           ...                  ...                  ...
    139        2.0000           -0.3751431             -10.2082
    140        2.0000           -0.3744920             -10.1904
    141        2.0000           -0.3686361             -10.0311
    142        2.0000           -0.3675556             -10.0017
    143        2.0000           -0.3672453              -9.9933
    144        2.0000           -0.3643231              -9.9137
    145        2.0000           -0.3572855              -9.7222
    146        2.0000           -0.3561731              -9.6920
    147        2.0000           -0.3547042              -9.6520
    148        2.0000           -0.3485060              -9.4833
    149        2.0000           -0.3429177              -9.3313
    150        2.0000           -0.3319500              -9.0328
    151        2.0000           -0.3228123              -8.7842 (HOMO)
    152                         -0.0102513              -0.2790 (LUMO)
    153                          0.0032692               0.0890
    154                          0.0115484               0.3142
    155                          0.0151226               0.4115
    156                          0.0223641               0.6086
    157                          0.0327507               0.8912
    158                          0.0332313               0.9043
    159                          0.0346930               0.9440
    160                          0.0439949               1.1972
    161                          0.0569727               1.5503
    162                          0.0593337               1.6146
    ...                                ...                  ...
    282                          0.9159116              24.9232
------------------------------------------------------------------
               HL-Gap            0.3125610 Eh            8.5052 eV
------------------------------------------------------------------

Atomic charges and shell populations (in atomic units):
------------------------------------------------------
     #    Z                q          p(s)       p(p)
------------------------------------------------------
     1    7 N      -0.359653      1.398638   3.961015
     2    6 C       0.011373      1.091715   2.896912
     3    6 C       0.435265      1.108815   2.455920
     4    8 O      -0.509469      1.854529   4.654940
     5    7 N      -0.351960      1.343572   4.008388
     6    6 C      -0.011917      1.124430   2.887487
     7    6 C       0.420933      1.118742   2.460325
     8    6 C       0.006419      1.117260   2.876320
     9    8 O      -0.516785      1.858071   4.658714
    10    7 N      -0.356039      1.380125   3.975915
    11    6 C      -0.167588      1.128088   3.039500
    12    6 C       0.436458      1.113130   2.450412
    13    6 C      -0.037288      1.114128   2.923160
    14    6 C       0.006719      1.129117   2.864164
    15    8 O      -0.521921      1.855275   4.666646
    16    6 C      -0.115717      1.161962   2.953755
    17    6 C      -0.099272      1.149506   2.949766
    18    7 N      -0.406017      1.404424   4.001592
    19    6 C      -0.182199      1.146134   3.036065
    20    6 C      -0.083076      1.146566   2.936510
    21    6 C      -0.098289      1.157193   2.941096
    22    6 C       0.421379      1.100698   2.477924
    23    6 C      -0.130043      1.143908   2.986135
    24    6 C      -0.093365      1.153344   2.940020
    25    6 C      -0.000370      1.111270   2.889101
    26    8 O      -0.452657      1.850792   4.601866
    27    6 C      -0.264340      1.175764   3.088575
    28    6 C      -0.240482      1.175012   3.065470
    29    7 N      -0.352095      1.349090   4.003005
    30    6 C      -0.176868      1.157303   3.019565
    31    6 C       0.432830      1.090245   2.476924
    32    6 C      -0.011916      1.113846   2.898070
    33    6 C       0.021357      1.108563   2.870079
    34    8 O      -0.512052      1.846803   4.665249
    35    6 C      -0.121240      1.157773   2.963467
    36    6 C      -0.098246      1.152581   2.945665
    37    7 N      -0.357843      1.367364   3.990479
    38    6 C      -0.159910      1.125952   3.033959
    39    6 C      -0.117861      1.159554   2.958307
    40    6 C      -0.102881      1.155110   2.947771
    41    6 C       0.389131      1.115435   2.495434
    42    6 C       0.040517      1.110670   2.848813
    43    6 C      -0.090664      1.152052   2.938613
    44    8 O      -0.542620      1.858577   4.684044
    45    7 N      -0.346088      1.582890   3.763199
    46    6 C      -0.084368      1.157269   2.927098
    47    6 C       0.089099      1.125486   2.785415
    48    7 N      -0.268618      1.370278   3.898340
    49    6 C      -0.106895      1.143412   2.963483
    50    6 C      -0.280062      1.183265   3.096797
    51    6 C      -0.193331      1.147480   3.045851
    52    6 C      -0.221109      1.176547   3.044562
    53    6 C      -0.104861      1.124299   2.980563
    54    6 C      -0.252430      1.146320   3.106110
    55    6 C      -0.180795      1.154177   3.026618
    56    6 C      -0.284492      1.158079   3.126413
    57    1 H       0.274263      0.725737
    58    1 H       0.128089      0.871911
    59    1 H       0.261835      0.738165
    60    1 H       0.145088      0.854912
    61    1 H       0.124406      0.875594
    62    1 H       0.265980      0.734020
    63    1 H       0.112436      0.887564
    64    1 H       0.093075      0.906925
    65    1 H       0.137656      0.862344
    66    1 H       0.090239      0.909761
    67    1 H       0.106646      0.893354
    68    1 H       0.252412      0.747588
    69    1 H       0.108418      0.891582
    70    1 H       0.111511      0.888489
    71    1 H       0.105876      0.894124
    72    1 H       0.116118      0.883882
    73    1 H       0.082182      0.917818
    74    1 H       0.105763      0.894237
    75    1 H       0.146218      0.853782
    76    1 H       0.096382      0.903618
    77    1 H       0.108012      0.891988
    78    1 H       0.112534      0.887466
    79    1 H       0.085776      0.914224
    80    1 H       0.084123      0.915877
    81    1 H       0.077338      0.922662
    82    1 H       0.263143      0.736857
    83    1 H       0.096386      0.903614
    84    1 H       0.101130      0.898870
    85    1 H       0.140774      0.859226
    86    1 H       0.079985      0.920015
    87    1 H       0.116058      0.883942
    88    1 H       0.293216      0.706784
    89    1 H       0.140736      0.859264
    90    1 H       0.108434      0.891566
    91    1 H       0.122474      0.877526
    92    1 H       0.111979      0.888021
    93    1 H       0.117509      0.882491
    94    1 H       0.145063      0.854937
    95    1 H       0.122351      0.877649
    96    1 H       0.261827      0.738173
    97    1 H       0.090140      0.909860
    98    1 H       0.114297      0.885703
    99    1 H       0.094027      0.905973
   100    1 H       0.085542      0.914458
   101    1 H       0.137044      0.862956
   102    1 H       0.087884      0.912116
   103    1 H       0.063888      0.936112
   104    1 H       0.089048      0.910952
   105    1 H       0.076266      0.923734
   106    1 H       0.123202      0.876798
   107    1 H       0.089694      0.910306
   108    1 H       0.100877      0.899123
   109    1 H       0.103673      0.896327
   110    1 H       0.079702      0.920298
   111    1 H       0.072260      0.927740
   112    1 H       0.093008      0.906992
   113    1 H       0.092935      0.907065
   114    1 H       0.107290      0.892710
------------------------------------------------------


Wiberg/Mayer (AO) data.
largest (>0.10) Wiberg bond orders for each atom

 ---------------------------------------------------------------------------
     #   Z sym  total        # sym  WBO       # sym  WBO       # sym  WBO
 ---------------------------------------------------------------------------
     1   7 N    3.250 --     7 C    1.149     2 C    0.988    57 O    0.877
                             9 C    0.138
     2   6 C    3.944 --     1 N    0.988    49 C    0.980     3 C    0.935
                            58 O    0.916
     3   6 C    3.863 --     4 C    1.695     5 N    1.136     2 C    0.935
     4   8 C    1.987 --     3 C    1.695     5 N    0.155
     5   7 N    3.306 --     3 C    1.136     6 C    1.019    59 O    0.892
                             4 C    0.155
     6   6 C    3.934 --     5 N    1.019    53 C    0.947    60 O    0.928
                            41 C    0.898
     7   6 C    3.859 --     9 C    1.691     1 N    1.149     8 C    0.924
     8   6 C    3.946 --    11 C    0.983    10 N    0.964    61 O    0.936
                             7 C    0.924
     9   8 C    1.963 --     7 C    1.691     1 N    0.138
    10   7 N    3.259 --    12 C    1.162     8 C    0.964    62 O    0.893
                            15 C    0.147
    11   6 C    3.970 --    13 C    1.026     8 C    0.983    63 O    0.950
                            64 O    0.938
    12   6 C    3.848 --    15 C    1.705    10 N    1.162    14 C    0.908
    13   6 C    3.982 --    16 C    1.399    17 C    1.397    11 C    1.026
                            24 C    0.118
    14   6 C    3.934 --    19 C    1.000    18 N    0.972    65 O    0.930
                            12 C    0.908
    15   8 C    1.965 --    12 C    1.705    10 N    0.147
    16   6 C    3.964 --    20 C    1.417    13 C    1.399    66 O    0.951
                            21 C    0.132
    17   6 C    3.968 --    21 C    1.468    13 C    1.397    67 O    0.950
                            20 C    0.102
    18   7 N    3.202 --    22 C    1.084    14 C    0.972    68 O    0.897
                            26 C    0.147
    19   6 C    3.960 --    14 C    1.000    23 C    0.987    69 O    0.958
                            70 O    0.953
    20   6 C    3.968 --    24 C    1.476    16 C    1.417    71 O    0.952
                            17 C    0.102
    21   6 C    3.964 --    17 C    1.468    24 C    1.380    72 O    0.955
                            16 C    0.132
    22   6 C    3.869 --    26 C    1.773    18 N    1.084    25 C    0.939
    23   6 C    3.971 --    28 C    1.009    27 C    0.993    19 C    0.987
                            73 O    0.952
    24   6 C    3.965 --    20 C    1.476    21 C    1.380    74 O    0.953
                            13 C    0.118
    25   6 C    3.941 --    29 N    0.995    30 C    0.950    22 C    0.939
                            75 O    0.916
    26   8 C    2.044 --    22 C    1.773    18 N    0.147
    27   6 C    3.950 --    23 C    0.993    76 O    0.976    78 O    0.970
                            77 O    0.969
    28   6 C    3.959 --    23 C    1.009    79 O    0.975    80 O    0.973
                            81 O    0.972
    29   7 N    3.288 --    31 C    1.142    25 C    0.995    82 O    0.887
                            34 C    0.161
    30   6 C    3.964 --    32 C    1.013    83 O    0.958    84 O    0.957
                            25 C    0.950
    31   6 C    3.874 --    34 C    1.707    29 N    1.142    33 C    0.962
    32   6 C    3.980 --    36 C    1.475    35 C    1.343    30 C    1.013
                            43 C    0.111
    33   6 C    3.927 --    38 C    0.983    31 C    0.962    37 N    0.940
                            85 O    0.928
    34   8 C    1.981 --    31 C    1.707    29 N    0.161
    35   6 C    3.968 --    39 C    1.504    32 C    1.343    86 O    0.950
                            40 C    0.111
    36   6 C    3.965 --    32 C    1.475    40 C    1.356    87 O    0.953
                            39 C    0.127
    37   7 N    3.294 --    41 C    1.238    33 C    0.940    88 O    0.865
                            44 C    0.148
    38   6 C    3.958 --    42 C    1.020    33 C    0.983    90 O    0.929
                            89 O    0.929
    39   6 C    3.964 --    35 C    1.504    43 C    1.342    91 O    0.949
                            36 C    0.127
    40   6 C    3.962 --    43 C    1.515    36 C    1.356    92 O    0.951
                            35 C    0.111
    41   6 C    3.869 --    44 C    1.647    37 N    1.238     6 C    0.898
    42   6 C    3.959 --    46 C    1.643    45 N    1.173    38 C    1.020
    43   6 C    3.963 --    40 C    1.515    39 C    1.342    93 O    0.951
                            32 C    0.111
    44   8 C    1.917 --    41 C    1.647    37 N    0.148
    45   7 N    2.993 --    47 C    1.610    42 C    1.173    48 N    0.113
    46   6 C    3.882 --    42 C    1.643    48 N    1.102    94 O    0.948
    47   6 C    3.927 --    45 N    1.610    48 N    1.245    95 O    0.943
    48   7 N    3.447 --    47 C    1.245    46 C    1.102    96 O    0.900
                            45 N    0.113
    49   6 C    3.969 --    51 C    0.999     2 C    0.980    50 C    0.977
                            97 O    0.946
    50   6 C    3.951 --    99 O    0.979    49 C    0.977   100 O    0.973
                            98 O    0.969
    51   6 C    3.956 --    52 C    1.011    49 C    0.999   102 O    0.964
                           101 O    0.937
    52   6 C    3.961 --    51 C    1.011   105 O    0.976   104 O    0.976
                           103 O    0.974
    53   6 C    3.970 --    54 C    1.037    55 C    0.981     6 C    0.947
                           106 O    0.928
    54   6 C    3.961 --    53 C    1.037   107 O    0.966   108 O    0.964
                           109 O    0.963
    55   6 C    3.969 --    56 C    1.027    53 C    0.981   111 O    0.961
                           110 O    0.953
    56   6 C    3.960 --    55 C    1.027   112 O    0.969   113 O    0.968
                           114 O    0.968
    57   1 O    0.925 --     1 N    0.877
    58   1 O    0.984 --     2 C    0.916
    59   1 O    0.931 --     5 N    0.892
    60   1 O    0.979 --     6 C    0.928
    61   1 O    0.985 --     8 C    0.936
    62   1 O    0.929 --    10 N    0.893
    63   1 O    0.987 --    11 C    0.950
    64   1 O    0.991 --    11 C    0.938
    65   1 O    0.981 --    14 C    0.930
    66   1 O    0.992 --    16 C    0.951
    67   1 O    0.989 --    17 C    0.950
    68   1 O    0.936 --    18 N    0.897
    69   1 O    0.988 --    19 C    0.958
    70   1 O    0.988 --    19 C    0.953
    71   1 O    0.989 --    20 C    0.952
    72   1 O    0.987 --    21 C    0.955
    73   1 O    0.993 --    23 C    0.952
    74   1 O    0.989 --    24 C    0.953
    75   1 O    0.979 --    25 C    0.916
    76   1 O    0.991 --    27 C    0.976
    77   1 O    0.988 --    27 C    0.969
    78   1 O    0.987 --    27 C    0.970
    79   1 O    0.993 --    28 C    0.975
    80   1 O    0.993 --    28 C    0.973
    81   1 O    0.994 --    28 C    0.972
    82   1 O    0.931 --    29 N    0.887
    83   1 O    0.991 --    30 C    0.958
    84   1 O    0.990 --    30 C    0.957
    85   1 O    0.980 --    33 C    0.928
    86   1 O    0.994 --    35 C    0.950
    87   1 O    0.987 --    36 C    0.953
    88   1 O    0.914 --    37 N    0.865
    89   1 O    0.980 --    38 C    0.929
    90   1 O    0.988 --    38 C    0.929
    91   1 O    0.985 --    39 C    0.949
    92   1 O    0.987 --    40 C    0.951
    93   1 O    0.986 --    43 C    0.951
    94   1 O    0.979 --    46 C    0.948
    95   1 O    0.985 --    47 C    0.943
    96   1 O    0.931 --    48 N    0.900
    97   1 O    0.992 --    49 C    0.946
    98   1 O    0.987 --    50 C    0.969
    99   1 O    0.991 --    50 C    0.979
   100   1 O    0.993 --    50 C    0.973
   101   1 O    0.981 --    51 C    0.937
   102   1 O    0.992 --    51 C    0.964
   103   1 O    0.996 --    52 C    0.974
   104   1 O    0.992 --    52 C    0.976
   105   1 O    0.994 --    52 C    0.976
   106   1 O    0.985 --    53 C    0.928
   107   1 O    0.992 --    54 C    0.966
   108   1 O    0.990 --    54 C    0.964
   109   1 O    0.989 --    54 C    0.963
   110   1 O    0.994 --    55 C    0.953
   111   1 O    0.995 --    55 C    0.961
   112   1 O    0.991 --    56 C    0.969
   113   1 O    0.991 --    56 C    0.968
   114   1 O    0.988 --    56 C    0.968
 ---------------------------------------------------------------------------

Topologies differ in total number of bonds
Writing topology from bond orders to xtbtopo.mol

Atomic dipole moments (in atomic units):
---------------------------------------------------------
     #    Z                 x            y            z
---------------------------------------------------------
           total    -0.179735     3.155488    -2.764665
---------------------------------------------------------
         |total|     4.199141    10.673152 Debye


           -------------------------------------------------
          | TOTAL ENERGY            -2524.651431265331 Eh   |
          | GRADIENT NORM               0.432833735897 Eh/α |
           -------------------------------------------------

------------------------------------------------------------------------
 * finished run on 2026/05/23 at 12:43:53.380     
------------------------------------------------------------------------
 total:
 * wall-time:     0 d,  0 h,  0 min, 17.442 sec
 *  cpu-time:     0 d,  0 h,  0 min, 33.016 sec
 * ratio c/w:     1.893 speedup
 SCF:
 * wall-time:     0 d,  0 h,  0 min, 16.848 sec
 *  cpu-time:     0 d,  0 h,  0 min, 32.512 sec
 * ratio c/w:     1.930 speedup

normal termination of xtb
