      -----------------------------------------------------------      
     |                   =====================                   |     
     |                           x T B                           |     
     |                   =====================                   |     
     |                         S. Grimme                         |     
     |          Mulliken Center for Theoretical Chemistry        |     
     |                    University of Bonn                     |     
      -----------------------------------------------------------      

   * xtb version 6.7.1 (26dd68d) compiled by 'froitzheim@fs7' on 2026-05-14

   xtb is free software: you can redistribute it and/or modify it under
   the terms of the GNU Lesser General Public License as published by
   the Free Software Foundation, either version 3 of the License, or
   (at your option) any later version.
   
   xtb is distributed in the hope that it will be useful,
   but WITHOUT ANY WARRANTY; without even the implied warranty of
   MERCHANTABILITY or FITNESS FOR A PARTICULAR PURPOSE.  See the
   GNU Lesser General Public License for more details.
   
   Cite this work as:
   * C. Bannwarth, E. Caldeweyher, S. Ehlert, A. Hansen, P. Pracht,
     J. Seibert, S. Spicher, S. Grimme, WIREs Comput. Mol. Sci., 2020, 11,
     e01493. DOI: 10.1002/wcms.1493
   
   for g-xTB:
   * T. Froitzheim, M. Müller, A. Hansen, S. Grimme, ChemRxiv, 2025, preprint.
     DOI: 10.26434/chemrxiv-2025-bjxv
   for GFN2-xTB:
   * C. Bannwarth, S. Ehlert and S. Grimme., J. Chem. Theory Comput., 2019,
     15, 1652-1671. DOI: 10.1021/acs.jctc.8b01176
   for GFN1-xTB:
   * S. Grimme, C. Bannwarth, P. Shushkov, J. Chem. Theory Comput., 2017,
     13, 1989-2009. DOI: 10.1021/acs.jctc.7b00118
   for GFN0-xTB:
   * P. Pracht, E. Caldeweyher, S. Ehlert, S. Grimme, ChemRxiv, 2019, preprint.
     DOI: 10.26434/chemrxiv.8326202.v1
   for GFN-FF:
   * S. Spicher and S. Grimme, Angew. Chem. Int. Ed., 2020, 59, 15665-15673.
     DOI: 10.1002/anie.202004239
   
   for ALPB and GBSA implicit solvation:
   * S. Ehlert, M. Stahn, S. Spicher, S. Grimme, J. Chem. Theory Comput.,
     2021, 17, 4250-4261. DOI: 10.1021/acs.jctc.1c00471
   
   for ddCOSMO and CPCM-X implicit solvation:
   * M. Stahn, S. Ehlert, S. Grimme, J. Phys. Chem. A,
     2023, XX, XXXX-XXXX. DOI: 10.1021/acs.jpca.3c04382
   
   for DFT-D4:
   * E. Caldeweyher, C. Bannwarth and S. Grimme, J. Chem. Phys., 2017,
     147, 034112. DOI: 10.1063/1.4993215
   * E. Caldeweyher, S. Ehlert, A. Hansen, H. Neugebauer, S. Spicher,
     C. Bannwarth and S. Grimme, J. Chem. Phys., 2019, 150, 154122.
     DOI: 10.1063/1.5090222
   * E. Caldeweyher, J.-M. Mewes, S. Ehlert and S. Grimme, Phys. Chem. Chem. Phys.
     2020, 22, 8499-8512. DOI: 10.1039/D0CP00502A
   
   for sTDA-xTB:
   * S. Grimme and C. Bannwarth, J. Chem. Phys., 2016, 145, 054103.
     DOI: 10.1063/1.4959605
   
   in the mass-spec context:
   * V. Asgeirsson, C. Bauer and S. Grimme, Chem. Sci., 2017, 8, 4879.
     DOI: 10.1039/c7sc00601b
   * J. Koopman and S. Grimme, ACS Omega 2019, 4, 12, 15120-15133.
     DOI: 10.1021/acsomega.9b02011
   
   for metadynamics refer to:
   * S. Grimme, J. Chem. Theory Comput., 2019, 155, 2847-2862
     DOI: 10.1021/acs.jctc.9b00143
   
   for SPH calculations refer to:
   * S. Spicher and S. Grimme, J. Chem. Theory Comput., 2021, 17, 1701-1714
     DOI: 10.1021/acs.jctc.0c01306
   
   for ONIOM refer to:
   * C. Plett, A. Katbashev, S. Ehlert, S. Grimme, M. Bursch,
     Phys. Chem. Chem. Phys., 2023, 25, 17860-17868. DOI: 10.1039/D3CP02178E
   
   for DIPRO refer to:
   * J. Kohn, N. Gildemeister, S. Grimme, D. Fazzi, A. Hansen,
     J. Chem. Phys. 159, 144106 (2023). DOI: 10.1063/5.0167484
   
   for PTB refer to:
   * S. Grimme, M. Mueller, A. Hansen, J. Chem. Phys., 2023, 158, 124111.
     DOI: 10.1063/5.0137838
   
   with help from (in alphabetical order)
   P. Atkinson, C. Bannwarth, F. Bohle, G. Brandenburg, E. Caldeweyher,
   M. Checinski, S. Dohm, S. Ehlert, S. Ehrlich, M. Friede, T. Froitzheim,
   I. Gerasimov, C. Hölzer, A. Katbashev, J. Kohn, J. Koopman, C. Lavigne,
   S. Lehtola, F. März, M. Müller, F. Musil, H. Neugebauer, J. Pisarek,
   C. Plett, P. Pracht, F. Pultar, J. Seibert, P. Shushkov, S. Spicher,
   M. Stahn, M. Steiner, T. Strunk, J. Stückrath, T. Rose, and J. Unsleber
   
 * started run on 2026/05/23 at 08:14:57.409     
   ID    Z sym.   atoms
    1    7 N      1, 5, 10, 17, 23, 28, 35
    2    6 C      2, 3, 6-8, 11-14, 16, 20, 21, 24-26, 29, 31-34, 36-40
    3    8 O      4, 9, 15, 18, 19, 22, 27, 30
    4    1 H      41-70

           -------------------------------------------------
          |                Calculation Setup                |
           -------------------------------------------------

          program call               : /home/xchen/software/xtb-6.7.1-gxtb/bin/xtb /home/xchen/Test/benchmark/md_sampled/01_6_0109_n1/snap_0063.xyz --charge -1 --gxtb --norestart
          coordinate file            : /home/xchen/Test/benchmark/md_sampled/01_6_0109_n1/snap_0063.xyz
          omp threads                :                    48

core increment energy         -1.7791297691186E+03 Eh
dispersion energy              1.0262510596076E-02 Eh
molecular charge              -1.0000000000000E+00 e
number of electrons            2.1399999999800E+02 e
number of unpaired electrons   0.0000000000000E+00 e
wavefunction                   restricted
integral cutoff                2.6907767250513E+01 bohr
energy convergence             1.0000000000000E-06 Eh
density convergence            2.0000000000000E-05 e

------------------------------------------------------------
  cycle        total energy    energy error   density error
------------------------------------------------------------
      1     -1954.982858664  -1.7586335E+02   0.0000000E+00
      2     -1955.313193571  -3.3033491E-01   2.5179178E-02
      3     -1955.523884733  -2.1069116E-01   1.9917139E-02
      4     -1955.969811787  -4.4592705E-01   1.5813251E-02
      5     -1955.977956097  -8.1443095E-03   1.2601153E-03
      6     -1955.978491257  -5.3516064E-04   2.0921086E-04
      7     -1955.978541968  -5.0710583E-05   7.2134112E-05
      8     -1955.978546079  -4.1109423E-06   1.6329183E-05
      9     -1955.978546683  -6.0386779E-07   4.1601688E-06
------------------------------------------------------------

electronic energy             -1.7685904007480E+02 Eh
total energy                  -1.9559785466828E+03 Eh

Post processing:
 | Mayer-Wiberg bond orders
 | Molecular Multipole Moments

 total:                                  11.957 sec
 - increment                              0.000 sec (  0%)
 - repulsion                              0.011 sec (  0%)
 - dispersion                             0.281 sec (  2%)
 - coulomb                                0.122 sec (  1%)
 - exchange                               0.008 sec (  0%)
 - hamiltonian                            0.501 sec (  4%)
 - acp                                    0.244 sec (  2%)
 - spin polarization                      0.000 sec (  0%)
 - post processing                        0.128 sec (  1%)
 - scc                                    9.715 sec ( 81%)
 - coulomb gradient                       0.070 sec (  0%)
 - dispersion gradient                    0.039 sec (  0%)
 - exchange gradient                      0.124 sec (  1%)
 - repulsion gradient                     0.084 sec (  0%)
 - acp gradient                           0.279 sec (  2%)
 - hamiltonian gradient                   0.472 sec (  3%)
 - gradient                               1.069 sec (  8%)

         :::::::::::::::::::::::::::::::::::::::::::::::::::::
         ::                     SUMMARY                     ::
         :::::::::::::::::::::::::::::::::::::::::::::::::::::
         :: total energy           -1955.978546682802 Eh    ::
         :: gradient norm              0.339778581295 Eh/a0 ::
         :: HOMO-LUMO gap              5.958593551284 eV    ::
         ::.................................................::
         :: add. restraining           0.000000000000 Eh    ::
         :: total charge              -1.000000000000 e     ::
         :::::::::::::::::::::::::::::::::::::::::::::::::::::

           -------------------------------------------------
          |                Property Printout                |
           -------------------------------------------------

    * Orbital Energies and Occupations
------------------------------------------------------------------
      #    Occupation            Energy/Eh            Energy/eV
------------------------------------------------------------------
      1        2.0000           -1.2567845             -34.1988
    ...           ...                  ...                  ...
     95        2.0000           -0.2985032              -8.1227
     96        2.0000           -0.2958540              -8.0506
     97        2.0000           -0.2930489              -7.9743
     98        2.0000           -0.2881223              -7.8402
     99        2.0000           -0.2859643              -7.7815
    100        2.0000           -0.2839481              -7.7266
    101        2.0000           -0.2787793              -7.5860
    102        2.0000           -0.2781723              -7.5695
    103        2.0000           -0.2698710              -7.3436
    104        2.0000           -0.2498615              -6.7991
    105        2.0000           -0.1835959              -4.9959
    106        2.0000           -0.1719974              -4.6803
    107        2.0000           -0.1574631              -4.2848 (HOMO)
    108                          0.0615111               1.6738 (LUMO)
    109                          0.0763473               2.0775
    110                          0.0841588               2.2901
    111                          0.0892926               2.4298
    112                          0.0944029               2.5688
    113                          0.0989124               2.6915
    114                          0.1129878               3.0746
    115                          0.1185455               3.2258
    116                          0.1429440               3.8897
    117                          0.2167126               5.8971
    118                          0.2361997               6.4273
    ...                                ...                  ...
    190                          1.0374049              28.2292
------------------------------------------------------------------
               HL-Gap            0.2189743 Eh            5.9586 eV
------------------------------------------------------------------

Atomic charges and shell populations (in atomic units):
------------------------------------------------------
     #    Z                q          p(s)       p(p)
------------------------------------------------------
     1    7 N      -0.354412      1.354750   3.999661
     2    6 C      -0.053251      1.128887   2.924364
     3    6 C       0.396850      1.107285   2.495866
     4    8 O      -0.552281      1.860283   4.691998
     5    7 N      -0.339580      1.395709   3.943871
     6    6 C       0.011865      1.143864   2.844271
     7    6 C       0.441745      1.094763   2.463492
     8    6 C      -0.054115      1.132166   2.921949
     9    8 O      -0.502143      1.849665   4.652478
    10    7 N      -0.332145      1.388556   3.943589
    11    6 C      -0.159257      1.178506   2.980751
    12    6 C       0.424826      1.088210   2.486964
    13    6 C      -0.214946      1.184835   3.030112
    14    6 C      -0.060950      1.156185   2.904765
    15    8 O      -0.533720      1.855089   4.678631
    16    6 C       0.521797      1.071624   2.406578
    17    7 N      -0.342525      1.383629   3.958896
    18    8 O      -0.655054      1.853812   4.801242
    19    8 O      -0.722743      1.860492   4.862251
    20    6 C       0.414558      1.101127   2.484314
    21    6 C       0.002483      1.109238   2.888279
    22    8 O      -0.529434      1.852146   4.677288
    23    7 N      -0.383192      1.384313   3.998879
    24    6 C      -0.262312      1.154329   3.107983
    25    6 C       0.428934      1.101950   2.469116
    26    6 C      -0.077888      1.141783   2.936105
    27    8 O      -0.477692      1.849636   4.628056
    28    7 N      -0.353132      1.374350   3.978783
    29    6 C       0.424833      1.118180   2.456987
    30    8 O      -0.538429      1.858431   4.679998
    31    6 C      -0.153992      1.135283   3.018709
    32    6 C      -0.076775      1.105318   2.971457
    33    6 C      -0.038527      1.138350   2.900177
    34    6 C      -0.049915      1.115856   2.934059
    35    7 N      -0.252988      1.346564   3.906425
    36    6 C       0.051626      1.103864   2.844510
    37    6 C      -0.110597      1.160350   2.950248
    38    6 C      -0.133556      1.141464   2.992093
    39    6 C      -0.135309      1.149650   2.985659
    40    6 C      -0.099928      1.141181   2.958747
    41    1 H       0.263614      0.736386
    42    1 H       0.127808      0.872192
    43    1 H       0.100914      0.899086
    44    1 H       0.271440      0.728560
    45    1 H       0.120816      0.879184
    46    1 H       0.130924      0.869076
    47    1 H       0.277669      0.722331
    48    1 H       0.095706      0.904294
    49    1 H       0.134946      0.865054
    50    1 H       0.072163      0.927837
    51    1 H       0.062463      0.937537
    52    1 H       0.117606      0.882394
    53    1 H       0.122371      0.877629
    54    1 H       0.274692      0.725308
    55    1 H       0.100504      0.899496
    56    1 H       0.251227      0.748773
    57    1 H       0.098001      0.901999
    58    1 H       0.089490      0.910510
    59    1 H       0.119173      0.880827
    60    1 H       0.134456      0.865544
    61    1 H       0.113685      0.886315
    62    1 H       0.289488      0.710512
    63    1 H       0.121798      0.878202
    64    1 H       0.131683      0.868317
    65    1 H       0.130869      0.869131
    66    1 H       0.260743      0.739257
    67    1 H       0.107624      0.892376
    68    1 H       0.111348      0.888652
    69    1 H       0.099234      0.900766
    70    1 H       0.098818      0.901182
------------------------------------------------------


Wiberg/Mayer (AO) data.
largest (>0.10) Wiberg bond orders for each atom

 ---------------------------------------------------------------------------
     #   Z sym  total        # sym  WBO       # sym  WBO       # sym  WBO
 ---------------------------------------------------------------------------
     1   7 N    3.262 --     7 C    1.121     2 C    0.998    41 O    0.901
                             9 C    0.142
     2   6 C    3.933 --     1 N    0.998     3 C    0.957    43 O    0.944
                            42 O    0.938
     3   6 C    3.867 --     4 C    1.641     5 N    1.200     2 C    0.957
     4   8 C    1.911 --     3 C    1.641     5 N    0.145
     5   7 N    3.285 --     3 C    1.200     6 C    0.959    44 O    0.889
                             4 C    0.145
     6   6 C    3.925 --    31 C    0.976     5 N    0.959    45 O    0.947
                            29 C    0.905
     7   6 C    3.855 --     9 C    1.727     1 N    1.121     8 C    0.939
     8   6 C    3.920 --    10 N    0.973    11 C    0.945     7 C    0.939
                            46 O    0.922
     9   8 C    2.006 --     7 C    1.727     1 N    0.142
    10   7 N    3.324 --    12 C    1.214     8 C    0.973    47 O    0.881
                            15 C    0.170
    11   6 C    3.932 --    13 C    0.998    48 O    0.964     8 C    0.945
                            49 O    0.942
    12   6 C    3.880 --    15 C    1.657    10 N    1.214    14 C    0.959
    13   6 C    3.950 --    11 C    0.998    51 O    0.969    50 O    0.964
                            16 C    0.888
    14   6 C    3.908 --    12 C    0.959    53 O    0.953    52 O    0.948
                            17 N    0.941
    15   8 C    1.960 --    12 C    1.657    10 N    0.170
    16   6 C    3.868 --    18 C    1.533    19 C    1.428    13 C    0.888
    17   7 N    3.295 --    20 C    1.214    14 C    0.941    54 O    0.892
                            22 C    0.170
    18   8 C    1.817 --    16 C    1.533    19 C    0.200
    19   8 C    1.712 --    16 C    1.428    18 C    0.200
    20   6 C    3.874 --    22 C    1.683    17 N    1.214    21 C    0.907
    21   6 C    3.947 --    24 C    1.031    23 N    0.962    55 O    0.938
                            20 C    0.907
    22   8 C    1.962 --    20 C    1.683    17 N    0.170
    23   7 N    3.243 --    25 C    1.111    21 C    0.962    56 O    0.906
                            27 C    0.159
    24   6 C    3.957 --    21 C    1.031    57 O    0.967    58 O    0.966
                            59 O    0.960
    25   6 C    3.866 --    27 C    1.750    23 N    1.111    26 C    0.950
    26   6 C    3.932 --    28 N    0.977    25 C    0.950    61 O    0.949
                            60 O    0.948
    27   8 C    2.023 --    25 C    1.750    23 N    0.159
    28   7 N    3.279 --    29 C    1.189    26 C    0.977    62 O    0.884
                            30 C    0.152
    29   6 C    3.853 --    30 C    1.681    28 N    1.189     6 C    0.905
    30   8 C    1.945 --    29 C    1.681    28 N    0.152
    31   6 C    3.955 --    32 C    1.002     6 C    0.976    63 O    0.955
                            64 O    0.952
    32   6 C    3.960 --    33 C    1.603    34 C    1.180    31 C    1.002
    33   6 C    3.920 --    32 C    1.603    35 N    1.186    65 O    0.947
    34   6 C    3.974 --    36 C    1.323    37 C    1.268    32 C    1.180
    35   7 N    3.459 --    33 C    1.186    36 C    1.148    66 O    0.901
    36   6 C    3.938 --    34 C    1.323    38 C    1.259    35 N    1.148
    37   6 C    3.964 --    39 C    1.551    34 C    1.268    67 O    0.955
                            38 C    0.120
    38   6 C    3.963 --    40 C    1.565    36 C    1.259    68 O    0.953
                            37 C    0.120
    39   6 C    3.965 --    37 C    1.551    40 C    1.313    69 O    0.957
    40   6 C    3.970 --    38 C    1.565    39 C    1.313    70 O    0.955
    41   1 O    0.931 --     1 N    0.901
    42   1 O    0.984 --     2 C    0.938
    43   1 O    0.990 --     2 C    0.944
    44   1 O    0.926 --     5 N    0.889
    45   1 O    0.985 --     6 C    0.947
    46   1 O    0.983 --     8 C    0.922
    47   1 O    0.923 --    10 N    0.881
    48   1 O    0.991 --    11 C    0.964
    49   1 O    0.982 --    11 C    0.942
    50   1 O    0.995 --    13 C    0.964
    51   1 O    0.996 --    13 C    0.969
    52   1 O    0.986 --    14 C    0.948
    53   1 O    0.985 --    14 C    0.953
    54   1 O    0.925 --    17 N    0.892
    55   1 O    0.990 --    21 C    0.938
    56   1 O    0.937 --    23 N    0.906
    57   1 O    0.990 --    24 C    0.967
    58   1 O    0.992 --    24 C    0.966
    59   1 O    0.986 --    24 C    0.960
    60   1 O    0.982 --    26 C    0.948
    61   1 O    0.987 --    26 C    0.949
    62   1 O    0.916 --    28 N    0.884
    63   1 O    0.985 --    31 C    0.955
    64   1 O    0.983 --    31 C    0.952
    65   1 O    0.983 --    33 C    0.947
    66   1 O    0.932 --    35 N    0.901
    67   1 O    0.988 --    37 C    0.955
    68   1 O    0.988 --    38 C    0.953
    69   1 O    0.990 --    39 C    0.957
    70   1 O    0.990 --    40 C    0.955
 ---------------------------------------------------------------------------

Topologies differ in total number of bonds
Writing topology from bond orders to xtbtopo.mol

Atomic dipole moments (in atomic units):
---------------------------------------------------------
     #    Z                 x            y            z
---------------------------------------------------------
           total     4.985319    10.767125     9.500703
---------------------------------------------------------
         |total|    15.200255    38.635194 Debye


           -------------------------------------------------
          | TOTAL ENERGY            -1955.978546682802 Eh   |
          | GRADIENT NORM               0.339778581295 Eh/α |
           -------------------------------------------------

------------------------------------------------------------------------
 * finished run on 2026/05/23 at 08:15:09.980     
------------------------------------------------------------------------
 total:
 * wall-time:     0 d,  0 h,  0 min, 12.570 sec
 *  cpu-time:     0 d,  0 h,  0 min, 18.953 sec
 * ratio c/w:     1.508 speedup
 SCF:
 * wall-time:     0 d,  0 h,  0 min, 12.312 sec
 *  cpu-time:     0 d,  0 h,  0 min, 18.685 sec
 * ratio c/w:     1.518 speedup

normal termination of xtb
