115
pH=5.88 total_charge=0 partial_charge_sum=+0.000000 method=gasteiger energy=-577.53910300
N   1.13772894 -3.65221068  1.36910169
C   2.46451329 -3.73838077  1.97983643
C   3.39298088 -2.70945010  1.46231154
O   4.33010346 -2.39452453  2.19961149
N   3.13307815 -2.11985158  0.26424527
C   3.68051491 -0.83921968  0.03376860
C   0.40109465 -2.53148247  1.29152281
C  -1.11783005 -2.73790536  0.91573004
O   0.83860657 -1.45147248  1.72832994
N  -1.64443286 -1.44541047  0.78307008
C  -1.29807605 -3.64857547 -0.31631264
C  -3.01192357 -1.30303465  0.91436995
C  -0.21837555 -3.27013555 -1.29005578
C  -3.68695261  0.02902835  0.96315871
O  -3.69436739 -2.32933875  0.88029316
C   0.62344100 -4.32786760 -1.83845707
C   0.02569746 -2.03271581 -1.79696078
N  -2.79770368  1.00122395  0.32957868
C  -5.19629243  0.18195386  0.54428013
C   1.73069359 -4.10828515 -2.57571918
C   1.14301339 -1.74153071 -2.63149898
C  -2.73162734  2.36147362  0.51832159
C  -6.13570391 -0.74559488  1.22524812
C   1.93859479 -2.78012201 -2.98733609
C  -1.46294405  2.96829092 -0.13532770
O  -3.65143487  2.96718034  1.08677801
C  -6.14365835 -0.74204380  2.68189426
N  -0.41977628  2.42633645  0.78577216
C  -1.21671532  2.51801960 -1.54906291
N  -6.95235357 -1.74383162  3.35385859
C   0.91983228  2.72791460  0.68964408
C  -0.77142829  3.61337127 -2.48726474
C  -8.33192206 -1.71220390  3.75298047
C   1.65917394  2.00988929  1.73871985
O   1.40493536  3.34162436 -0.18072403
C  -1.90977711  4.69801139 -2.78063520
N  -9.16605181 -0.80876477  3.48026697
N  -8.67896291 -2.70446825  4.55958154
N   2.61922320  0.94039420  1.38882644
C   2.33854454  2.96992378  2.69394099
N  -1.41196119  5.54498149 -3.81339112
C   3.73366880  0.98702186  2.42057232
C   2.54191247  0.20479571  0.25602700
C   3.09803140  1.96240633  3.56555265
C  -2.19056326  6.55717765 -4.34937525
O   1.64625005  0.40226189 -0.54753687
N  -3.40321127  6.78625652 -4.13800982
N  -1.46310966  7.37741945 -5.26641088
C   3.04669059 -5.22102380  1.96538338
O   4.00041759 -5.27856500  2.97787548
C   3.69674952 -5.49395317  0.64602756
C   4.31646268 -0.78696153 -1.30282614
C   4.66515104  0.57712084 -1.72388133
C   5.56392645  1.20190605 -0.66495868
C   6.44540646  2.24808881 -1.37741171
N   7.55633278  1.58144926 -2.04540931
H   0.71371766 -4.43375054  0.87556915
H   2.29764397 -3.36414945  3.03585204
H   2.29153095 -2.46399578 -0.25400659
H   4.54580978 -0.70710472  0.82942078
H  -1.56159349 -3.21150985  1.80786618
H  -1.14500801 -0.59394171  1.07166193
H  -1.43504953 -4.74795555 -0.12016663
H  -2.27565378 -3.46338388 -0.78354566
H  -3.76281572  0.38886340  2.01124412
H   0.53833364 -5.21928362 -1.23149852
H  -0.51254289 -1.23000031 -1.40516226
H  -2.11941693  0.60640667 -0.23636599
H  -5.44013984  1.28182707  0.70052246
H  -5.28137012  0.14901965 -0.50238110
H   2.48619305 -4.82270482 -2.75807066
H   1.44781104 -0.68602830 -2.66519817
H  -5.94599840 -1.77293734  0.93653379
H  -7.21821978 -0.50901956  0.78777154
H   2.84482471 -2.61346843 -3.46281711
H  -1.56995415  4.05048800 -0.02041467
H  -5.19233358 -0.75596485  3.10930880
H  -6.62813679  0.20626847  3.10332172
H  -0.67034646  2.22538993  1.82809214
H  -2.13360192  1.95805453 -2.00651987
H  -0.42286705  1.79105163 -1.60275492
H  -6.51096859 -2.58307116  3.67679509
H   0.17741871  4.08082211 -2.11694610
H  -0.68145692  3.15281211 -3.47963001
H   0.95292320  1.45630321  2.31047274
H  -2.83394953  4.09292630 -2.91753318
H  -2.07475973  5.17232761 -1.86881711
H  -8.98912219  0.03826375  2.97558378
H  -8.03096110 -3.26675809  5.07308338
H  -9.45163494 -2.39682766  5.19189617
H   3.04548012  3.70510324  2.21586119
H   1.58861171  3.59724918  3.15794447
H  -0.64239322  5.20884540 -4.33235030
H   4.18433419 -0.04464383  2.74622790
H   4.51810163  1.57172215  1.92678618
H   3.96843035  2.48507136  3.98116940
H   2.45371111  1.40982496  4.19255681
H  -4.01040958  6.07103858 -3.80978372
H  -0.57786387  7.68536090 -4.94349908
H  -2.08376641  7.95089853 -5.95869129
H   2.11470978 -5.82275721  2.17809136
H   4.48116486 -4.39214016  2.97615086
H   4.35905655 -6.37663147  0.66227643
H   4.32417484 -4.61752558  0.36656796
H   3.12813146 -5.58498721 -0.26830086
H   5.21936883 -1.31725317 -1.11939277
H   3.73329966 -1.32535546 -1.99186728
H   3.70789670  1.07192832 -1.87421392
H   5.13385979  0.52242487 -2.76509064
H   4.97369158  1.62283418  0.09103440
H   6.06938797  0.40504465 -0.07325270
H   6.89493111  2.93002432 -0.65875917
H   5.78112048  2.92325537 -1.97981592
H   8.49128442  1.97497668 -1.94127080
H   7.43113056  1.11585523 -2.88419629
