115
pH=5.88 total_charge=0 partial_charge_sum=+0.000000 method=gasteiger energy=-577.08597800
N   1.18629614 -3.67096884  1.24412962
C   2.39144598 -3.70907803  1.98555359
C   3.36542962 -2.67652131  1.57584182
O   4.37553093 -2.41298376  2.21706550
N   3.16060335 -2.15493229  0.26866301
C   3.62726786 -0.81951244  0.13231156
C   0.34066328 -2.58926296  1.34040293
C  -1.08021120 -2.86320248  0.93461032
O   0.75411833 -1.48092261  1.70176504
N  -1.71190720 -1.50470406  0.76202638
C  -1.22133940 -3.67789952 -0.41531936
C  -3.06100773 -1.36189481  0.82535266
C  -0.21259187 -3.32418251 -1.46963008
C  -3.64494147  0.09300343  1.09930860
O  -3.74385095 -2.39286587  0.87502555
C   0.58810112 -4.33304203 -1.83839852
C   0.01404187 -1.94405181 -1.81130225
N  -2.79311618  1.05617103  0.39331188
C  -5.09774335  0.14477523  0.55833553
C   1.70300560 -4.01497061 -2.65789392
C   1.16983815 -1.69664247 -2.47448260
C  -2.84666327  2.40220187  0.45164019
C  -6.14895115 -0.87932375  1.11298965
C   2.04041001 -2.71617030 -2.98170484
C  -1.55326634  3.02155553 -0.13499901
O  -3.61584534  3.14003830  1.01393041
C  -6.22155151 -0.76138047  2.73076033
N  -0.48139847  2.67379036  0.77883838
C  -1.22363463  2.47931288 -1.58020990
N  -6.94535985 -1.78219086  3.41247099
C   0.89667698  2.69827217  0.62784698
C  -0.72068696  3.57058766 -2.53488696
C  -8.22657719 -1.68859139  3.73780358
C   1.66208090  1.86032446  1.75695864
O   1.45519327  3.44049767 -0.12405038
C  -1.66925349  4.71883636 -2.63195995
N  -9.18112515 -0.82226178  3.48795364
N  -8.65921408 -2.76880119  4.52923377
N   2.72217246  0.95238309  1.41531591
C   2.35061410  2.86740397  2.68018453
N  -1.37939782  5.61195869 -3.79377506
C   3.71430280  1.00392193  2.52910280
C   2.61550444  0.20226569  0.28333625
C   3.13089274  1.91501438  3.53174680
C  -2.17185023  6.61066903 -4.40998853
O   1.72763385  0.40013121 -0.58885962
N  -3.41819431  6.72705460 -4.11430870
N  -1.44256173  7.33372764 -5.33864365
C   3.00258726 -5.11676299  1.95711407
O   3.92107972 -5.18566956  3.06755541
C   3.66059272 -5.57929737  0.64252826
C   4.29440999 -0.79257624 -1.25809320
C   4.61950874  0.58229661 -1.77569133
C   5.42955702  1.25125760 -0.66202782
C   6.42039746  2.26923269 -1.25735961
N   7.46500417  1.58766876 -2.07024951
H   0.88579073 -4.57409855  0.93077271
H   2.22403510 -3.64600277  3.09209235
H   2.28522097 -2.50536181 -0.08635982
H   4.31911807 -0.58375140  0.81200139
H  -1.62142114 -3.43963785  1.70286583
H  -1.05794120 -0.79568325  1.09647735
H  -0.93632877 -4.66898210 -0.13630601
H  -2.29910187 -3.53385409 -0.66035657
H  -3.59364908  0.15701994  2.12649288
H   0.24838115 -5.37617475 -1.80662910
H  -0.63739123 -1.08818752 -1.52126967
H  -2.03334197  0.73640477 -0.26957318
H  -5.39865300  1.15574968  0.68496263
H  -5.05738919 -0.06305721 -0.55513437
H   2.33738594 -4.89104244 -3.01347764
H   1.43430752 -0.71471495 -2.87799273
H  -5.85408102 -1.91730508  0.76601531
H  -7.11953434 -0.65528125  0.72880900
H   2.88901461 -2.48127208 -3.68452546
H  -1.71440827  4.06335836 -0.07535876
H  -5.10588812 -0.93862366  3.04926693
H  -6.36426280  0.21250889  2.96819735
H  -0.87298078  1.86779828  1.24594484
H  -2.18151402  2.00383670 -1.91475829
H  -0.44746118  1.73130411 -1.45073552
H  -6.42473257 -2.63181374  3.52258696
H   0.27272882  3.85411266 -2.20863985
H  -0.54939048  3.04824302 -3.46992119
H   0.87163615  1.32093308  2.36201036
H  -2.62192594  4.34868081 -2.87628028
H  -1.72745571  5.43032524 -1.78958448
H  -8.78778210 -0.19112139  2.78460684
H  -7.98175432 -3.23862173  5.16562308
H  -9.54317569 -2.68588254  4.99781143
H   2.90332862  3.53248945  2.05833192
H   1.69120856  3.49544802  3.33938483
H  -0.58262904  5.38518592 -4.39941640
H   3.85555775  0.08459097  2.94838256
H   4.66274829  1.36399703  2.31801199
H   3.75132621  2.30584515  4.36461315
H   2.33855058  1.43089697  4.21143312
H  -3.61680013  5.83451342 -3.60880112
H  -0.60089348  7.83920124 -5.07138079
H  -2.03326413  7.88213865 -5.80817692
H   2.27635538 -5.81732943  2.28803669
H   4.28142406 -4.34103469  3.21370908
H   4.01383377 -6.57307992  0.84409744
H   4.46773629 -4.80411167  0.41471651
H   2.77489720 -5.71815633 -0.03171159
H   5.23113476 -1.36543152 -1.24517449
H   3.70944796 -1.45987243 -2.03102193
H   3.88895282  1.34821276 -2.13540442
H   5.31354364  0.51955868 -2.63623502
H   4.76418220  1.85509240  0.03786408
H   6.13198090  0.56654595 -0.22057098
H   6.90058782  2.91760666 -0.50365538
H   5.83816324  2.81552823 -1.95259174
H   8.32541863  2.15467894 -2.15072485
H   7.03385425  1.46980817 -3.04766567
