115
pH=5.88 total_charge=0 partial_charge_sum=+0.000000 method=gasteiger energy=-577.12504050
N   1.13923225 -3.77403111  1.35686151
C   2.46245154 -3.75702204  2.01435661
C   3.34216096 -2.49128298  1.65579338
O   3.92197287 -2.09101207  2.61535052
N   3.42192748 -1.89612015  0.48774593
C   4.00049444 -0.50426820  0.41384017
C   0.22146348 -2.78319351  1.45802922
C  -1.08824931 -2.97425743  0.96657875
O   0.56004098 -1.75559859  2.02301064
N  -1.80934515 -1.65614684  0.98841462
C  -1.09942795 -3.95372835 -0.30042319
C  -3.07841699 -1.50564879  0.52798976
C  -0.19633565 -3.41558883 -1.43862969
C  -3.66705098 -0.07270652  0.37554242
O  -3.69934336 -2.49809113  0.30246551
C   0.45709675 -4.21814984 -2.33996145
C  -0.24904927 -2.03658909 -1.76249888
N  -2.84641288  0.88332167 -0.27701910
C  -5.04735573 -0.12287182 -0.30810541
C   0.92620729 -3.74230957 -3.58927905
C   0.26964690 -1.49762845 -2.93005398
C  -2.66108023  2.13479906  0.27542741
C  -6.14327413 -0.81434210  0.43911992
C   0.84657369 -2.36880794 -3.82526294
C  -1.30246745  2.84940131 -0.10193309
O  -3.40172389  2.72089493  1.08485593
C  -6.24452888 -0.54118212  1.91230964
N  -0.46753404  2.46925837  1.05915989
C  -0.71074342  2.40381651 -1.53242710
N  -6.64825177 -1.68053987  2.69948810
C   0.89997035  2.59502306  1.08662739
C  -0.54995361  3.66003498 -2.46105436
C  -7.94464482 -2.14246562  2.57701004
C   1.41989556  1.59794141  2.23169678
O   1.47883407  3.35639970  0.38581666
C  -1.79041105  4.26630188 -2.91133403
N  -8.92623453 -1.53046275  1.95058303
N  -8.15263552 -3.23947584  3.34383382
N   2.73649600  1.08915045  1.87311027
C   1.65298745  2.20724712  3.59246057
N  -1.47730937  5.51053158 -3.56821195
C   3.66834755  0.95670892  3.14323539
C   2.82512486  0.41198282  0.66091794
C   2.61915061  1.21787881  4.26256182
C  -2.45012881  6.48850437 -3.97425961
O   1.90684809  0.56372804 -0.14383999
N  -3.60930177  6.68468942 -3.48897828
N  -1.97258276  7.20868201 -5.09253313
C   3.29298084 -5.05996074  1.88609622
O   4.31433732 -5.05518927  2.80793163
C   3.88254493 -5.10399272  0.43610320
C   4.79935067 -0.33870518 -0.88502561
C   5.20628912  1.07914081 -1.06211203
C   6.18586369  1.57436088  0.03061682
C   6.64011403  2.98097582 -0.09355569
N   7.36203823  3.38990191 -1.29207196
H   0.99219472 -4.55365738  0.67841671
H   2.25790676 -3.60826787  3.08257186
H   2.92832903 -2.15519775 -0.34200305
H   4.68468787 -0.52038532  1.27323074
H  -1.52571337 -3.45235029  1.73746989
H  -1.14160573 -0.90801312  0.98298573
H  -1.07401033 -5.03559410  0.07799568
H  -2.14942973 -4.06196121 -0.72907912
H  -3.76889779  0.15287901  1.47822807
H   0.39508804 -5.26968799 -2.24699273
H  -0.76034293 -1.22058776 -1.20771463
H  -2.09857625  0.73531722 -1.04445895
H  -5.28827490  0.91219854 -0.33687258
H  -4.98508994 -0.52581570 -1.33875301
H   1.33089280 -4.46071839 -4.32739147
H   0.04337584 -0.44672541 -3.10160974
H  -6.02453747 -1.84958607  0.37485574
H  -7.10327580 -0.61413829 -0.00328562
H   1.26417395 -1.99011941 -4.66988748
H  -1.54713294  3.91831938 -0.08880195
H  -5.34228445 -0.19508428  2.46082786
H  -7.10257362  0.21687720  2.16974546
H  -0.82160379  1.60724022  1.49024370
H  -1.12693432  1.59211746 -1.96810818
H   0.35691593  2.04287569 -1.45945126
H  -5.97469079 -2.45522590  2.65021150
H  -0.01087334  4.49330138 -2.05281798
H   0.02145431  3.38398641 -3.30559377
H   0.71113890  0.73826701  2.29583129
H  -2.39496523  3.51982426 -3.56429308
H  -2.47767448  4.46766065 -2.07246684
H  -8.56426830 -0.95355598  1.24182417
H  -7.68462033 -3.10320877  4.19596727
H  -9.06974614 -3.58613727  3.48431042
H   2.02868325  3.19203349  3.47320863
H   0.88079309  2.31732484  4.35186993
H  -0.76440687  5.50604419 -4.24608784
H   4.24314976  0.03236814  3.25675774
H   4.32123820  1.95955039  3.23611451
H   3.17728549  1.56220392  5.14517576
H   2.02045486  0.37866788  4.50952288
H  -3.64689935  5.87877662 -2.93480589
H  -0.98073392  7.20390449 -5.27281384
H  -2.42119890  8.13692997 -5.28358311
H   2.66578788 -5.88621639  2.04725925
H   4.18250015 -4.27848891  3.37040952
H   4.75718262 -5.83584597  0.52629908
H   4.28298175 -4.21098545  0.13732423
H   3.20017471 -5.57443261 -0.33417962
H   5.72224252 -0.96547600 -0.72342227
H   4.28179130 -0.71558941 -1.76731133
H   4.30818975  1.83984103 -0.89215697
H   5.62597584  1.24578737 -2.03093910
H   5.67500655  1.62584829  1.05056464
H   7.06225434  0.81621530  0.07719816
H   7.31120256  3.15252184  0.76044976
H   5.75911509  3.60634553  0.21876713
H   6.85026376  3.86223973 -2.03573141
H   8.26103722  3.77598229 -1.08344078
