115
pH=5.88 total_charge=0 partial_charge_sum=+0.000000 method=gasteiger energy=-576.78910300
N   0.95270969 -3.87542575  1.33680250
C   2.27099368 -3.77115607  2.04555972
C   3.13003118 -2.56156211  1.50537485
O   4.24721009 -2.47706816  2.05075308
N   2.77806448 -1.76206783  0.46964217
C   3.64091465 -0.58337102  0.02463337
C   0.00903095 -2.96546165  1.57940494
C  -1.34660914 -3.01723710  0.89606803
O   0.30031732 -2.02303181  2.26832069
N  -1.94263523 -1.66013316  0.75118185
C  -1.22744691 -3.68241059 -0.51732026
C  -3.11934286 -1.45285252  1.33142254
C  -0.20787144 -3.10101880 -1.52031527
C  -3.58618525 -0.12903285  1.02698439
O  -3.82610733 -2.27127879  1.94899293
C   0.88894128 -3.83839756 -1.83819533
C  -0.52813931 -1.92440565 -2.14847143
N  -2.77670739  0.71087642  0.13198622
C  -5.05985983  0.13278194  0.59314425
C   1.70136974 -3.45838669 -2.86951764
C   0.40455061 -1.42426537 -3.07576792
C  -2.36576708  1.88489892  0.60922730
C  -6.23553873 -0.30455504  1.62639256
C   1.59843689 -2.20113994 -3.38284330
C  -1.42623528  2.83753422 -0.20296235
O  -2.46444873  2.11200563  1.81472750
C  -6.21054317  0.30606004  3.00331167
N  -0.34234015  3.06693509  0.70417675
C  -1.07048701  2.34418083 -1.58793213
N  -6.66056307 -0.61056828  4.03420137
C   1.03545668  2.97326251  0.62327992
C  -0.65087352  3.39604331 -2.69568682
C  -8.01189977 -1.01728644  3.97076630
C   1.57409345  2.14501345  1.80423317
O   1.69722671  3.44763394 -0.29331707
C  -2.00143605  3.89034077 -3.27738445
N  -8.99745282 -0.46311549  3.47003207
N  -8.16912675 -2.28765003  4.46462858
N   2.75205122  1.26583431  1.32773672
C   2.30796629  3.16552311  2.70851621
N  -1.79340570  4.81253198 -4.37655228
C   3.86972116  1.33355088  2.27111547
C   2.60256978  0.55549325  0.19646147
C   3.43990122  2.29732852  3.35324742
C  -2.86634872  5.74661602 -4.59729720
O   1.66025119  0.58542604 -0.60264800
N  -3.95391849  5.96801981 -4.02096195
N  -2.48307783  6.48958211 -5.72622782
C   3.12031614 -5.06272872  2.03072385
O   4.04308933 -5.04469619  3.10008470
C   3.60983171 -5.24505469  0.53227833
C   4.16074835 -0.93747652 -1.31229396
C   5.10160524  0.17698039 -1.78301684
C   6.21106197  0.77805826 -0.75351765
C   7.10514337  1.75383471 -1.46876514
N   8.23568793  1.07436874 -2.06148976
H   0.60263386 -4.80553014  1.05235000
H   2.13153370 -3.42779615  3.11357219
H   1.81936772 -1.77082148  0.15846885
H   4.54625638 -0.55402782  0.67248590
H  -2.02927671 -3.45639713  1.55201736
H  -1.60448035 -0.88679381  0.29162048
H  -1.19582953 -4.78004299 -0.45982118
H  -2.24400928 -3.47954093 -0.81229050
H  -3.52110372  0.39463197  2.01417672
H   0.85459066 -4.77053773 -1.52560077
H  -1.42041643 -1.49291969 -1.76372090
H  -2.90815175  0.67778293 -0.95720917
H  -5.14914236  1.26067428  0.46871576
H  -5.34929076 -0.33714454 -0.29559687
H   2.42369803 -4.14499746 -3.30590262
H   0.35770731 -0.47628671 -3.60484396
H  -6.16317846 -1.41409893  1.76062306
H  -7.12998796 -0.12977097  1.07677262
H   2.18946022 -2.05407996 -4.21688165
H  -1.96835916  3.76321202 -0.26889288
H  -5.16503300  0.67089860  3.13284711
H  -6.88590100  1.24442761  2.98921016
H  -0.73391900  3.13408491  1.59502116
H  -2.00728160  1.92988182 -1.96875045
H  -0.45340169  1.48362098 -1.64976965
H  -5.89916280 -1.27198824  4.25364478
H  -0.09017588  4.19524919 -2.17507206
H   0.00237696  2.94449637 -3.43999831
H   0.85251255  1.55590145  2.29055329
H  -2.75106348  3.09843049 -3.60013828
H  -2.53514885  4.41976836 -2.53826430
H  -8.71210655  0.52785979  3.11833858
H  -7.68822920 -2.35422034  5.36773616
H  -9.15336279 -2.53365617  4.69260745
H   2.74936734  3.87115879  2.07867607
H   1.70695002  3.49524838  3.47894000
H  -0.82389046  4.98948221 -4.67769203
H   4.19749000  0.36612270  2.69937251
H   4.66214252  1.61449679  1.62494661
H   4.20235265  3.00393125  3.70303751
H   3.17019894  1.76674076  4.24809094
H  -4.13647274  5.17101772 -3.44075083
H  -1.52992421  6.84862130 -5.93117741
H  -3.24309236  7.11652839 -6.12699769
H   2.49530743 -5.95959696  2.13393901
H   4.53466337 -4.22124700  3.01554049
H   4.01973862 -6.26536491  0.39326800
H   4.52751497 -4.56811296  0.42992070
H   2.81201244 -4.93586161 -0.16042159
H   4.75667318 -1.84120395 -1.16679207
H   3.39860577 -1.21831845 -2.03847960
H   4.52168708  1.13892032 -1.91267242
H   5.73795341 -0.05962155 -2.66435484
H   5.82255633  1.21928395  0.11157169
H   6.81531477  0.04257279 -0.40790862
H   7.34134174  2.61545712 -0.82367303
H   6.39549183  2.10613433 -2.24479005
H   8.62487847  0.43543831 -1.36521066
H   8.89408914  1.58012379 -2.61076668
