115
pH=5.88 total_charge=0 partial_charge_sum=+0.000000 method=gasteiger energy=-577.76566550
N   0.96603622 -3.57722798  0.97834318
C   1.97920117 -3.54169780  1.92730601
C   3.03672664 -2.46058690  1.78115621
O   3.58899882 -2.07731900  2.79868733
N   3.21004507 -1.93723242  0.50038140
C   3.71313542 -0.59764777  0.25043677
C  -0.05225198 -2.64162879  0.93008527
C  -1.41945330 -3.04083193  0.23875501
O   0.09687941 -1.53218562  1.43665247
N  -2.23754224 -1.88694728  0.17303537
C  -1.43614746 -3.85287865 -1.08277978
C  -2.82365367 -1.39959092  1.28296894
C  -0.57296899 -3.06526574 -2.12132188
C  -3.43245474  0.00844523  1.27256861
O  -3.06577167 -2.15391945  2.26728133
C   0.84893070 -3.25981706 -2.23716034
C  -1.18011075 -1.90558666 -2.63922519
N  -2.74955026  0.81564534  0.35090661
C  -4.91456383 -0.16127941  0.94501189
C   1.55509639 -2.19198762 -2.94505026
C  -0.45647564 -1.01987909 -3.48319991
C  -1.61163244  1.47287793  0.92735862
C  -5.67849054 -1.07043260  1.86804822
C   0.90627158 -1.19109467 -3.61058777
C  -1.13811645  2.63472126  0.01776791
O  -1.05445913  1.05444078  1.95083528
C  -6.01398938 -0.47381480  3.21971480
N  -0.12159423  3.51343459  0.55364429
C  -0.82118535  2.23181395 -1.46819208
N  -6.79728016 -1.43009582  4.07808415
C   1.22306519  2.99675393  0.47522116
C  -0.98087723  3.33892292 -2.52144912
C  -8.17750665 -1.63693416  3.75097647
C   1.87274580  2.39646633  1.67124546
O   1.72944925  3.00460244 -0.61997614
C  -2.31389904  3.96380540 -2.69189504
N  -8.97315121 -0.80209143  3.26195000
N  -8.57471813 -2.79199294  4.41892996
N   2.97644415  1.52551236  1.29944294
C   2.58905581  3.34797291  2.71077812
N  -2.17246120  4.96462694 -3.71153794
C   4.14540862  1.66308603  2.12858099
C   2.61608338  0.41340762  0.63273749
C   3.85062004  2.72393274  3.21402806
C  -3.23853793  5.28476726 -4.58163508
O   1.52885203  0.31007803  0.12220144
N  -4.42056317  4.88376981 -4.53333339
N  -2.91750862  6.14410024 -5.59908136
C   2.64850917 -4.96482484  1.83924915
O   3.74166082 -4.87594316  2.69855222
C   3.13387241 -5.41579025  0.46532903
C   4.02502474 -0.29609774 -1.25354166
C   4.80618262  0.95850488 -1.44433988
C   6.23707423  0.72694981 -1.02935147
C   7.27028610  1.68992047 -1.66511453
N   8.58463951  1.73460011 -0.84393083
H   0.72496375 -4.52087386  0.65804964
H   1.57067858 -3.31890088  2.92911352
H   2.46506818 -2.13199931 -0.10514406
H   4.51852173 -0.47104123  0.94249554
H  -1.77349805 -3.61030811  1.11675672
H  -1.94169696 -1.22252326 -0.54564332
H  -0.96514877 -4.76811537 -0.88655684
H  -2.37048767 -4.27997979 -1.45992009
H  -3.34150235  0.37309098  2.26716718
H   1.34974384 -4.06729750 -1.79889225
H  -2.20407818 -1.77937127 -2.36620947
H  -3.34821835  1.42732612 -0.24741926
H  -5.38050145  0.77968586  0.94909183
H  -5.00972416 -0.53462791 -0.12234057
H   2.70862887 -2.21647212 -3.00043960
H  -0.85280495 -0.11264372 -3.98961959
H  -5.00664648 -1.92105896  2.10271296
H  -6.57943137 -1.48753299  1.43657033
H   1.46686440 -0.46841956 -4.10871161
H  -1.99570170  3.28845750 -0.11413485
H  -5.15399776 -0.28343894  3.86346980
H  -6.59393296  0.42549273  3.22109157
H  -0.35864815  3.90025941  1.48556085
H  -1.56027609  1.34374804 -1.73322988
H   0.17291893  1.79782518 -1.56912935
H  -6.17169272 -2.22943816  4.20121162
H  -0.23756358  4.04428379 -2.20094969
H  -0.66105369  2.86781770 -3.45796847
H   1.10468110  1.88802295  2.24801185
H  -3.01778460  3.18370223 -2.96644949
H  -2.69360945  4.34097987 -1.68670951
H  -8.43208317  0.06949435  3.25811722
H  -7.88721704 -3.53991220  4.55148421
H  -9.55073254 -3.04209490  4.24929526
H   2.70951034  4.34131776  2.11320061
H   1.98827107  3.61957104  3.57639221
H  -1.53606316  5.62095620 -3.49246480
H   4.32092019  0.68040467  2.55000414
H   5.06622582  1.89302072  1.51788778
H   4.73802244  3.36760194  3.34811579
H   3.55456236  2.25277599  4.14872880
H  -4.71067693  4.54696504 -3.62223560
H  -2.01895754  6.34784422 -5.96480775
H  -3.62887008  6.85339959 -5.72747138
H   1.93249237 -5.72964094  2.28751384
H   4.45347547 -5.45585953  2.43506347
H   3.51286057 -6.38722105  0.59568142
H   3.92037596 -4.77333595  0.09303533
H   2.29939466 -5.37838279 -0.24452697
H   4.59470882 -1.16689977 -1.65314614
H   2.96028088 -0.24880067 -1.63929224
H   4.37094382  1.82126865 -0.78868579
H   4.70655211  1.12984752 -2.54330191
H   6.29904290  0.90445586  0.03402401
H   6.66194135 -0.24787573 -1.26219475
H   6.97208245  2.75870670 -1.61797570
H   7.49448548  1.47609224 -2.68405089
H   9.08667048  0.86139103 -0.67934338
H   9.11318309  2.52419970 -0.66517374
