115
pH=5.88 total_charge=0 partial_charge_sum=+0.000000 method=gasteiger energy=-577.67191550
N   0.81101281 -3.70454195  0.77515058
C   1.91971978 -3.67336985  1.73822746
C   2.83115753 -2.36665290  1.60420500
O   3.12730766 -1.77015899  2.62406809
N   3.15024159 -2.00619308  0.29954906
C   3.71837282 -0.68018892  0.09623145
C  -0.09288017 -2.70214574  0.84539386
C  -1.46432841 -3.01128420  0.17442326
O   0.10652001 -1.63422491  1.42749986
N  -2.26827790 -1.74965350  0.23477104
C  -1.46118219 -3.63313884 -1.22263127
C  -2.69012996 -1.36831035  1.48683820
C  -0.61104634 -2.76886977 -2.20605684
C  -3.52000794 -0.00147529  1.56711923
O  -2.61596536 -2.04771061  2.53415572
C   0.77530793 -3.01263209 -2.28678466
C  -1.19815918 -1.65544162 -2.83514447
N  -2.99350839  0.99942039  0.66641612
C  -5.01673541 -0.21069097  1.26348302
C   1.63102576 -2.09537691 -2.94143813
C  -0.29659963 -0.85004234 -3.57031053
C  -1.82359584  1.53703694  0.91949064
C  -5.85977216 -1.21530117  1.96329573
C   1.06491613 -1.01811968 -3.63625968
C  -1.35468722  2.62027377 -0.13482506
O  -1.05142165  1.07047942  1.76945993
C  -6.02715912 -0.79465345  3.47625986
N  -0.24889290  3.41180876  0.44424886
C  -0.98157979  2.06781212 -1.51986562
N  -6.80912765 -1.72039200  4.32197321
C   1.11999715  2.90802511  0.34200111
C  -1.06036386  3.22161463 -2.58181675
C  -8.21360467 -1.77950584  4.04431135
C   1.84505735  2.26394999  1.51214590
O   1.78906775  3.13100979 -0.65319322
C  -2.47851908  3.73681311 -2.90311259
N  -8.94191671 -1.04469237  3.35271833
N  -8.69335909 -2.92616673  4.82816732
N   2.97057578  1.46610548  1.22665905
C   2.55411250  3.50319744  2.23548537
N  -2.26645397  4.76598552 -3.89247196
C   4.13744624  1.88909864  1.94735932
C   2.72120117  0.38657737  0.51534497
C   3.71223210  2.90288950  2.93082144
C  -3.36282079  5.35583141 -4.57566854
O   1.57594139  0.23721707  0.12490211
N  -4.63896510  5.22697278 -4.47908146
N  -2.88048644  6.20379134 -5.63174070
C   2.64606942 -4.95836226  1.73061456
O   3.56843276 -4.96316413  2.81601955
C   3.39756257 -5.39227541  0.45831485
C   4.16053349 -0.52823068 -1.27481255
C   5.13231303  0.62510982 -1.59954514
C   6.44207028  0.67253119 -0.91720929
C   7.31048242  1.87827867 -1.29632437
N   8.63358399  1.80282068 -0.73134457
H   0.41329660 -4.60794548  0.50424890
H   1.49801402 -3.52374116  2.74543206
H   2.39901735 -2.28338488 -0.27889492
H   4.53632653 -0.50365801  0.77824547
H  -1.78492180 -3.69802904  0.92710678
H  -1.83278831 -0.89761747 -0.20345072
H  -1.08927477 -4.61686261 -1.20391746
H  -2.52846713 -3.69025678 -1.51093541
H  -3.43827443  0.31499938  2.55948283
H   1.22224037 -3.91619053 -1.88636079
H  -2.28025305 -1.44657193 -2.81427083
H  -3.64175991  1.47793705  0.02509369
H  -5.43138671  0.81482524  1.52446158
H  -5.02534849 -0.27451846  0.12254023
H   2.77678273 -2.28634563 -2.78541799
H  -0.86119740 -0.04034729 -4.06303360
H  -5.39373148 -2.22536180  1.92806472
H  -6.89620216 -1.25116280  1.61339290
H   1.65014272 -0.41598551 -4.33238914
H  -2.14184656  3.35090499 -0.36765375
H  -5.04518300 -0.72875537  3.93012335
H  -6.45088799  0.25551132  3.52054107
H  -0.42397546  3.34692368  1.47713903
H  -1.81012070  1.31564540 -1.63413399
H   0.01382777  1.56323412 -1.56091359
H  -6.43843731 -1.76430704  5.23997694
H  -0.39794581  4.02268048 -2.29537820
H  -0.66721315  2.67863714 -3.49292746
H   1.13126587  1.92992483  2.29073707
H  -3.07693829  2.90198241 -3.28205258
H  -2.88218583  4.07680164 -1.89958682
H  -8.65133378 -0.21262647  2.87240198
H  -7.92365105 -3.26645545  5.35630137
H  -9.63410047 -2.90577652  5.14525468
H   2.88364236  4.16897063  1.38714647
H   1.95994915  4.09905634  2.89502836
H  -1.40997237  4.70682724 -4.29590816
H   4.65823711  1.06983063  2.43274275
H   4.75078558  2.36372024  1.12204161
H   4.44805313  3.68661165  3.18051685
H   3.42188978  2.44700147  3.86186601
H  -5.03856092  4.47191339 -3.80960123
H  -2.09537763  6.73373558 -5.18278148
H  -3.69852127  6.78902937 -5.77706659
H   1.89418752 -5.76491760  1.90809592
H   3.87552577 -5.90877879  2.95877390
H   4.23940751 -6.07264238  0.73842611
H   3.87735018 -4.56430020 -0.05694315
H   2.71724312 -6.06149300 -0.23059013
H   4.54577321 -1.58023085 -1.44968486
H   3.28633752 -0.41506406 -1.91946229
H   4.46157391  1.51486701 -1.39080702
H   5.28760319  0.66547005 -2.66024399
H   6.35539489  0.65418911  0.23960328
H   6.91429490 -0.35275419 -1.16905288
H   6.85906390  2.82977208 -0.94148519
H   7.22610572  1.98771453 -2.42341126
H   8.78994406  0.87309702 -1.00464185
H   9.28689087  2.31338542 -1.25675771
