115
pH=5.88 total_charge=0 partial_charge_sum=+0.000000 method=gasteiger energy=-577.03910300
N   1.08881570 -3.74488613  1.24420844
C   2.31896080 -3.71715168  2.02922514
C   3.34267134 -2.71094227  1.64675130
O   4.17529502 -2.38335928  2.43967078
N   3.24205006 -2.00324058  0.48165472
C   3.84740745 -0.65321371  0.18131833
C   0.23780747 -2.67103828  1.36681788
C  -1.14266351 -2.91372443  0.81931452
O   0.49615836 -1.68014027  1.94669275
N  -1.78141527 -1.63036210  0.59897446
C  -1.14941510 -3.73835408 -0.59556351
C  -3.18562774 -1.58595623  0.55680158
C  -0.14437375 -3.21198179 -1.61038369
C  -3.64415233 -0.04963951  0.83382722
O  -3.93500379 -2.55465983  0.54019133
C   0.38031679 -4.21351551 -2.44396852
C   0.16863938 -1.87258377 -1.91567521
N  -2.81383654  0.82421791 -0.01383304
C  -5.13556724  0.21472417  0.68489663
C   1.17113639 -3.96547643 -3.49007081
C   0.99466251 -1.61678604 -2.95970794
C  -2.71639728  2.17458560  0.17268886
C  -6.20890065 -0.73590854  1.28028221
C   1.48971958 -2.64249651 -3.85260803
C  -1.43322426  2.81547252 -0.37444573
O  -3.52384984  2.78623061  0.87103521
C  -5.99899236 -0.74766761  2.77931553
N  -0.42206977  2.26285411  0.57118123
C  -1.08352382  2.67839979 -1.87950573
N  -6.64248342 -1.78010155  3.52099499
C   0.83984801  2.55215300  0.75875971
C  -0.55572306  3.92722241 -2.55184221
C  -7.98917595 -1.95452881  3.41629863
C   1.38142032  1.56435413  1.93877089
O   1.42448958  3.43057728  0.15989328
C  -1.33371912  5.15208822 -2.51601202
N  -8.80855843 -1.17257117  2.90227766
N  -8.37868360 -3.17753557  3.99317325
N   2.63517743  0.79670476  1.58054983
C   1.87763795  2.45309855  3.17364306
N  -1.20480232  5.72661369 -3.81901917
C   3.60273153  0.80192451  2.72570333
C   2.73222912  0.24922648  0.41154961
C   2.75178741  1.35628788  3.86447107
C  -2.17318947  6.51116295 -4.27952964
O   1.77231112  0.30621532 -0.37653249
N  -3.32131721  6.76605339 -3.90421559
N  -1.69824945  7.17087632 -5.40342499
C   2.87372832 -5.12173302  2.16665402
O   3.70049835 -5.30097239  3.38698097
C   3.71423755 -5.67217444  1.07428798
C   4.48942899 -0.35720065 -1.20768556
C   4.86090551  1.07765643 -1.35170159
C   5.79668698  1.70674668 -0.28226660
C   6.47830034  3.07518975 -0.65173862
N   7.76808774  2.92860337 -1.36884268
H   1.16243627 -4.32298753  0.39503181
H   2.01122231 -3.45919517  3.11437564
H   2.60229595 -2.34082274 -0.15348614
H   4.70847485 -0.55052047  0.87970537
H  -1.77612283 -3.45406221  1.60039415
H  -1.24420355 -0.85358474  0.93027539
H  -0.76166030 -4.78654446 -0.41277989
H  -2.15884570 -3.87352151 -0.92027239
H  -3.33326930  0.03793148  1.89148700
H   0.01255996 -5.20790568 -2.17902747
H  -0.08403608 -0.98047348 -1.39459485
H  -2.15323112  0.41978304 -0.75945310
H  -5.24159843  1.11972574  1.20167254
H  -5.34064069  0.30283767 -0.31308281
H   1.59621410 -4.82002210 -3.97939001
H   1.11372203 -0.55928558 -3.23430746
H  -6.04963969 -1.73063827  0.98560055
H  -7.16291959 -0.32680469  0.90715491
H   2.10535027 -2.44692833 -4.71231630
H  -1.37452471  3.88071071 -0.09488868
H  -4.90745023 -0.58710441  3.12747468
H  -6.52037036  0.18401730  3.07611639
H  -0.75706968  1.31442773  0.89947828
H  -2.14618126  2.37832315 -2.37337154
H  -0.39987520  1.83101454 -2.07596051
H  -6.00944059 -2.58719433  3.66173756
H   0.39015709  4.15348010 -2.05804402
H  -0.16833027  3.55435827 -3.50747307
H   0.59324939  0.84514539  2.25182210
H  -2.24473208  4.93319216 -2.11591178
H  -0.73450594  5.86909532 -1.84159779
H  -8.50449407 -0.26178443  2.53034677
H  -8.16254291 -3.37319304  5.00046557
H  -9.36766232 -3.36047468  3.92247016
H   2.58636444  3.29711641  2.91176111
H   0.96255167  2.74234946  3.69009718
H  -0.52576941  5.33121348 -4.46513236
H   4.06863423 -0.19535692  2.87146681
H   4.40205633  1.44162053  2.63516738
H   3.41254606  1.72515778  4.55299203
H   2.28165447  0.52782953  4.45741134
H  -3.74319621  6.34274904 -3.07144440
H  -0.66668299  7.30665401 -5.46512916
H  -2.20948602  7.96060712 -5.65349637
H   1.94355262 -5.66429224  2.36246148
H   4.04735653 -4.37614652  3.65237456
H   4.38970939 -6.51106284  1.36260125
H   4.42032573 -4.94272463  0.73685578
H   3.11203620 -6.05178816  0.22006921
H   5.41321650 -0.97461717 -1.42272794
H   3.87571728 -0.45932601 -2.05957475
H   3.93294448  1.69566286 -1.41245197
H   5.55484263  1.16229001 -2.20574495
H   5.27938738  2.00062411  0.66433618
H   6.60113232  1.02210634  0.03266670
H   6.69147523  3.52282561  0.32924166
H   5.70682028  3.63872606 -1.17742054
H   7.82353268  3.19677518 -2.32335678
H   8.49531387  3.33873381 -0.85524552
