115
pH=5.88 total_charge=0 partial_charge_sum=+0.000000 method=gasteiger energy=-577.87504050
N   0.88475279 -3.66973104  0.72600050
C   1.87206096 -3.67008181  1.77826249
C   2.84667852 -2.36663985  1.63081371
O   3.27090689 -1.90548114  2.64690666
N   3.12224029 -1.96368598  0.37564278
C   3.65514235 -0.55411920  0.25399754
C  -0.03759410 -2.66764472  0.82424798
C  -1.39076900 -2.91605572  0.29436260
O   0.18825094 -1.63805430  1.43275742
N  -2.13993271 -1.67333146  0.24306906
C  -1.41782522 -3.57184480 -1.07134458
C  -2.65087608 -1.36618868  1.45929894
C  -0.57700084 -2.82086481 -2.08827305
C  -3.36784475 -0.04401674  1.51888376
O  -2.73779099 -2.22617122  2.31254830
C   0.84375582 -3.11065763 -2.18517905
C  -1.19041135 -1.87981807 -2.88730724
N  -2.78597134  0.81873786  0.47465069
C  -4.78160002 -0.19581278  1.08541262
C   1.56354710 -2.23783391 -3.00280071
C  -0.39017108 -0.88560404 -3.54023446
C  -1.64578379  1.46997617  0.79165102
C  -5.71812999 -1.12798908  1.93691405
C   0.98287765 -1.01894558 -3.44995480
C  -1.20760722  2.57714251 -0.11592826
O  -0.90783132  1.18454727  1.69051401
C  -6.01082479 -0.60747118  3.39879586
N  -0.14231905  3.22976505  0.64000508
C  -0.99032804  2.13236923 -1.49222436
N  -6.71317429 -1.55245193  4.18599362
C   1.17406215  2.95616308  0.38070915
C  -0.96916580  3.14998515 -2.60149618
C  -8.10976951 -1.63793433  3.97828145
C   1.87923166  2.41886585  1.66088527
O   1.73572037  3.08546693 -0.66490253
C  -2.35955778  3.81173910 -2.74493007
N  -8.89624574 -0.96760240  3.32434743
N  -8.72286366 -2.73599282  4.66146844
N   2.88408378  1.46846165  1.36692656
C   2.57234991  3.54404060  2.48657954
N  -2.32176202  4.81940444 -3.75967603
C   4.10683676  1.88438625  1.99348248
C   2.56637795  0.35642483  0.63945833
C   3.65683176  2.79936950  3.13236697
C  -3.42471848  5.29871126 -4.49745484
O   1.50359282  0.18525415  0.11850404
N  -4.63341043  4.98204012 -4.49865434
N  -2.87676675  6.21654013 -5.53365141
C   2.63572982 -5.02691178  1.78210266
O   3.62655364 -4.90120549  2.75256248
C   3.13483070 -5.39726501  0.36331894
C   4.06716367 -0.41036856 -1.20125798
C   4.95108747  0.84097550 -1.54329418
C   6.38438990  0.65820301 -0.94546160
C   7.28859311  1.75361507 -1.48733860
N   8.58112120  1.84494352 -0.78212086
H   0.52553197 -4.54917086  0.42186126
H   1.39919566 -3.45725295  2.70565601
H   2.43169875 -2.15460776 -0.30561708
H   4.58185917 -0.53798357  0.73365824
H  -2.01415367 -3.52276582  0.85565940
H  -1.92733724 -0.91814834 -0.36960312
H  -0.84637715 -4.49653169 -0.92652727
H  -2.46249735 -3.85704700 -1.32773598
H  -3.14275165  0.42066812  2.48014641
H   1.36195885 -3.97407201 -1.80783944
H  -2.23707473 -1.73256470 -3.05899661
H  -3.34437222  1.09925666 -0.29190711
H  -5.35381912  0.77954361  0.95950370
H  -4.83857432 -0.62500251  0.05968477
H   2.64431320 -2.32136207 -3.00431519
H  -0.82755452 -0.01272471 -3.92213988
H  -5.28726353 -2.11987922  2.07904454
H  -6.59022886 -1.29247876  1.31978512
H   1.61866177 -0.26065983 -3.83247807
H  -2.11252590  3.24628565 -0.12491881
H  -5.04654202 -0.37560375  3.87666035
H  -6.50696244  0.40159447  3.41444284
H  -0.44685002  3.16318345  1.56435185
H  -1.81147783  1.48682935 -1.81023363
H  -0.13349550  1.49584207 -1.53637318
H  -6.38746344 -1.84756812  5.06581242
H  -0.18685759  3.87582460 -2.49646901
H  -0.78081992  2.79456709 -3.66509060
H   1.11664521  1.80905748  2.15995186
H  -3.14270493  3.07452370 -3.08361722
H  -2.78129636  4.30137468 -1.78653839
H  -8.57832049 -0.10670470  2.93814459
H  -8.12679024 -3.52153798  4.52944224
H  -9.53337401 -2.91294866  4.11796552
H   2.95822812  4.41757390  2.04069204
H   1.80540704  3.73851902  3.20606386
H  -1.46531088  5.34186759 -3.67790569
H   4.76796021  1.03846007  2.31475587
H   4.76339780  2.44282029  1.28563454
H   4.40183357  3.35359021  3.62527061
H   3.24228474  2.07434295  3.83683552
H  -4.72869007  4.48450303 -3.67366927
H  -1.89889745  5.90974991 -5.65947843
H  -3.29625559  5.95106013 -6.39257605
H   1.87864042 -5.79747372  2.06434170
H   3.85230966 -5.78399724  3.16941249
H   3.81709580 -6.28691255  0.51494125
H   3.71770187 -4.65631721 -0.18907435
H   2.24682841 -5.56234530 -0.33980139
H   4.55707972 -1.36961604 -1.44821509
H   3.22766919 -0.21340321 -1.86216151
H   4.50738519  1.70423893 -1.05587537
H   4.96400736  0.96712154 -2.59747603
H   6.27866439  0.72055783  0.13343896
H   6.66604056 -0.37178990 -1.25021871
H   6.71481368  2.67781365 -1.49135399
H   7.42611510  1.42928338 -2.55793879
H   9.18304860  1.10562646 -1.14653034
H   9.20997940  2.68327507 -0.96084118
