115
pH=5.88 total_charge=0 partial_charge_sum=+0.000000 method=gasteiger energy=-579.54691550
N   0.80666759 -3.76337170  0.89081273 -0.34024866
C   1.91785168 -3.71387685  1.85506333  0.13355780
C   2.78827239 -2.49144738  1.65484854  0.24541915
O   3.22238319 -1.87926989  2.66858725 -0.27258857
N   3.13275753 -2.02897579  0.33951636 -0.34242433
C   3.72877178 -0.70624515  0.11656977  0.10795720
C  -0.18712757 -2.72744180  0.81371149  0.24314861
C  -1.53834311 -2.99888222  0.17810486  0.11175888
O   0.04555376 -1.60174655  1.33084220 -0.27268943
N  -2.42451059 -1.82951402  0.28206966 -0.34219502
C  -1.43350687 -3.48347318 -1.28969332  0.00167169
C  -2.89721922 -1.32419768  1.54022091  0.24273804
C  -0.54658969 -2.63086036 -2.17011955 -0.04544281
C  -3.74290616 -0.07555866  1.59421182  0.10780179
O  -2.62514727 -1.93273582  2.61096886 -0.27270446
C   0.78256872 -3.01857714 -2.41121975 -0.05895111
C  -1.04482089 -1.47532716 -2.79928484 -0.05895111
N  -3.21030991  0.94073654  0.67611523 -0.34252028
C  -5.21305145 -0.39048439  1.23901131 -0.02200002
C   1.59930012 -2.25950711 -3.25283888 -0.06199274
C  -0.21777501 -0.70801561 -3.62510799 -0.06199274
C  -1.90907135  1.52604898  0.84183546  0.24272796
C  -5.89493298 -1.40580454  2.17478970 -0.03322052
C   1.10421143 -1.09766078 -3.84911403 -0.06224871
C  -1.46434017  2.64254196 -0.07393339  0.10780174
O  -1.14145103  1.10260440  1.74750046 -0.27270464
C  -6.04224810 -0.88637218  3.61204652  0.01754934
N  -0.31158540  3.35905225  0.50087981 -0.34251366
C  -1.20017529  2.10231490 -1.49920993 -0.02200002
N  -6.88760000 -1.78532499  4.39848413 -0.35676175
C   1.05500119  2.95427821  0.32614971  0.24295724
C  -1.03323718  3.21658723 -2.54839558 -0.03322052
C  -8.32141136 -1.86921267  4.29066717  0.18520503
C   1.85539612  2.48145686  1.51338831  0.11064363
O   1.61039345  3.07645893 -0.79901922 -0.27269602
C  -2.38057239  3.77960061 -3.02250170  0.01754934
N  -8.99705894 -1.07023396  3.52331022 -0.26962207
N  -9.02294842 -2.84740930  5.05819728 -0.37016044
N   2.90251788  1.52880603  1.14941760 -0.32888708
C   2.57857134  3.63856617  2.19553102 -0.02176809
N  -2.18497407  4.79208143 -4.06215935 -0.35676175
C   4.16015280  1.83233121  1.81956752  0.02147784
C   2.66791200  0.34762024  0.34868070  0.24532901
C   3.88624593  3.04439773  2.70249246 -0.03293701
C  -3.26989170  5.48878920 -4.70053993  0.18520503
O   1.54518271  0.18403318 -0.20047813 -0.27247170
N  -4.50665063  5.25543890 -4.38495262 -0.26962207
N  -2.98297746  6.46110237 -5.70584586 -0.37016044
C   2.74309194 -5.02410026  1.84250400  0.08044382
O   3.65586268 -5.00681697  2.91032021 -0.39071690
C   3.49731538 -5.25653122  0.52432894 -0.03637741
C   4.28028099 -0.61655758 -1.32415735 -0.02361802
C   5.10961060  0.64838819 -1.60493622 -0.04963431
C   6.52001411  0.57468281 -1.00066893 -0.04080171
C   7.31196069  1.84962833 -1.30181013 -0.00772601
N   8.64032990  1.76949779 -0.70281708 -0.33047349
H   0.61225732 -4.65972507  0.39128101  0.16397817
H   1.46248309 -3.63485072  2.86818506  0.06601889
H   2.85006207 -2.60718758 -0.48269953  0.16388247
H   4.57383165 -0.59337010  0.82148296  0.06322232
H  -2.00814404 -3.82745152  0.75235596  0.06357286
H  -2.79247822 -1.37730687 -0.58176586  0.16389361
H  -1.06355774 -4.53194392 -1.29784168  0.03426233
H  -2.45279096 -3.53051859 -1.73208909  0.03426233
H  -3.70554964  0.34717939  2.62130047  0.06321532
H   1.18333015 -3.91760073 -1.96157310  0.06256189
H  -2.07627306 -1.17700583 -2.67787059  0.06256189
H  -3.81145082  1.29462138 -0.10306020  0.16388059
H  -5.80005178  0.55426322  1.25013047  0.02936247
H  -5.25718878 -0.78868998  0.20117891  0.02936247
H   2.61933219 -2.57036849 -3.43843330  0.06227868
H  -0.60659751  0.18251778 -4.10177493  0.06227868
H  -5.33418189 -2.36485489  2.18046588  0.02854852
H  -6.90049452 -1.62535479  1.75757627  0.02854852
H   1.74179865 -0.50550993 -4.49264119  0.06226890
H  -2.31065852  3.35943615 -0.12505584  0.06321532
H  -5.03817661 -0.84610538  4.08538013  0.04911505
H  -6.45689797  0.14388814  3.63176721  0.04911505
H  -0.51317091  3.93276075  1.35102371  0.16388071
H  -2.03391968  1.43705052 -1.81405153  0.02936247
H  -0.29444200  1.46323957 -1.49687261  0.02936247
H  -6.41552879 -2.38996645  5.10816639  0.16307669
H  -0.40904410  4.04258475 -2.14609077  0.02854852
H  -0.50225382  2.78982324 -3.42733967  0.02854852
H   1.18049973  1.99357084  2.24799849  0.06345153
H  -2.99858841  2.95196300 -3.43378541  0.04911505
H  -2.91552439  4.24132580 -2.16643017  0.04911505
H  -8.56518455 -0.32399444  2.93723460  0.19098667
H  -8.50511324 -3.50227622  5.68500097  0.15924722
H  -10.06307908 -2.92222844  5.00005996  0.15924722
H   2.81129926  4.44816725  1.46736767  0.02937025
H   1.97467466  4.06031708  3.02835190  0.02937025
H  -1.21281036  5.03075903 -4.36429435  0.16307669
H   4.48788293  0.97814926  2.44978756  0.04940774
H   4.93772904  2.07942058  1.06875267  0.04940774
H   4.71505425  3.78333367  2.64716202  0.02855806
H   3.75867732  2.71761960  3.75823142  0.02855806
H  -4.79625764  4.56152858 -3.66195924  0.19098667
H  -1.99684085  6.66821100 -5.97885693  0.15924722
H  -3.75641523  6.97762337 -6.18107049  0.15924722
H   2.03015004 -5.86991598  1.98717953  0.06249657
H   3.94090333 -5.94590793  3.06224342  0.21055973
H   3.95952628 -6.26621155  0.53398249  0.02576598
H   4.30821622 -4.50895292  0.39774728  0.02576598
H   2.80964367 -5.20272173 -0.34458458  0.02576598
H   4.89871782 -1.51509515 -1.54234317  0.02929714
H   3.42936204 -0.62953573 -2.03544493  0.02929714
H   4.57337991  1.54944034 -1.23931962  0.02679166
H   5.20825433  0.75475099 -2.70765565  0.02679166
H   6.46449707  0.44271682  0.09961247  0.02794783
H   7.05804437 -0.29927153 -1.42900416  0.02794783
H   6.77437336  2.72574803 -0.87634377  0.04254920
H   7.40299362  1.99104583 -2.40240161  0.04254920
H   9.19302442  1.05287764 -1.22765118  0.11837913
H   9.11692269  2.68647730 -0.86264348  0.11837913
