      -----------------------------------------------------------      
     |                   =====================                   |     
     |                           x T B                           |     
     |                   =====================                   |     
     |                         S. Grimme                         |     
     |          Mulliken Center for Theoretical Chemistry        |     
     |                    University of Bonn                     |     
      -----------------------------------------------------------      

   * xtb version 6.7.1 (edcfbbe) compiled by 'albert@albert-system' on 2024-07-22

   xtb is free software: you can redistribute it and/or modify it under
   the terms of the GNU Lesser General Public License as published by
   the Free Software Foundation, either version 3 of the License, or
   (at your option) any later version.
   
   xtb is distributed in the hope that it will be useful,
   but WITHOUT ANY WARRANTY; without even the implied warranty of
   MERCHANTABILITY or FITNESS FOR A PARTICULAR PURPOSE.  See the
   GNU Lesser General Public License for more details.
   
   Cite this work as:
   * C. Bannwarth, E. Caldeweyher, S. Ehlert, A. Hansen, P. Pracht,
     J. Seibert, S. Spicher, S. Grimme, WIREs Comput. Mol. Sci., 2020, 11,
     e01493. DOI: 10.1002/wcms.1493
   
   for GFN2-xTB:
   * C. Bannwarth, S. Ehlert and S. Grimme., J. Chem. Theory Comput., 2019,
     15, 1652-1671. DOI: 10.1021/acs.jctc.8b01176
   for GFN1-xTB:
   * S. Grimme, C. Bannwarth, P. Shushkov, J. Chem. Theory Comput., 2017,
     13, 1989-2009. DOI: 10.1021/acs.jctc.7b00118
   for GFN0-xTB:
   * P. Pracht, E. Caldeweyher, S. Ehlert, S. Grimme, ChemRxiv, 2019, preprint.
     DOI: 10.26434/chemrxiv.8326202.v1
   for GFN-FF:
   * S. Spicher and S. Grimme, Angew. Chem. Int. Ed., 2020, 59, 15665-15673.
     DOI: 10.1002/anie.202004239
   
   for ALPB and GBSA implicit solvation:
   * S. Ehlert, M. Stahn, S. Spicher, S. Grimme, J. Chem. Theory Comput.,
     2021, 17, 4250-4261. DOI: 10.1021/acs.jctc.1c00471
   
   for ddCOSMO and CPCM-X implicit solvation:
   * M. Stahn, S. Ehlert, S. Grimme, J. Phys. Chem. A,
     2023, XX, XXXX-XXXX. DOI: 10.1021/acs.jpca.3c04382
   
   for DFT-D4:
   * E. Caldeweyher, C. Bannwarth and S. Grimme, J. Chem. Phys., 2017,
     147, 034112. DOI: 10.1063/1.4993215
   * E. Caldeweyher, S. Ehlert, A. Hansen, H. Neugebauer, S. Spicher,
     C. Bannwarth and S. Grimme, J. Chem. Phys., 2019, 150, 154122.
     DOI: 10.1063/1.5090222
   * E. Caldeweyher, J.-M. Mewes, S. Ehlert and S. Grimme, Phys. Chem. Chem. Phys.
     2020, 22, 8499-8512. DOI: 10.1039/D0CP00502A
   
   for sTDA-xTB:
   * S. Grimme and C. Bannwarth, J. Chem. Phys., 2016, 145, 054103.
     DOI: 10.1063/1.4959605
   
   in the mass-spec context:
   * V. Asgeirsson, C. Bauer and S. Grimme, Chem. Sci., 2017, 8, 4879.
     DOI: 10.1039/c7sc00601b
   * J. Koopman and S. Grimme, ACS Omega 2019, 4, 12, 15120-15133.
     DOI: 10.1021/acsomega.9b02011
   
   for metadynamics refer to:
   * S. Grimme, J. Chem. Theory Comput., 2019, 155, 2847-2862
     DOI: 10.1021/acs.jctc.9b00143
   
   for SPH calculations refer to:
   * S. Spicher and S. Grimme, J. Chem. Theory Comput., 2021, 17, 1701-1714
     DOI: 10.1021/acs.jctc.0c01306
   
   for ONIOM refer to:
   * C. Plett, A. Katbashev, S. Ehlert, S. Grimme, M. Bursch,
     Phys. Chem. Chem. Phys., 2023, 25, 17860-17868. DOI: 10.1039/D3CP02178E
   
   for DIPRO refer to:
   * J. Kohn, N. Gildemeister, S. Grimme, D. Fazzi, A. Hansen,
     J. Chem. Phys., 2023, just accepted.
   
   for PTB refer to:
   * S. Grimme, M. Mueller, A. Hansen, J. Chem. Phys., 2023, 158, 124111.
     DOI: 10.1063/5.0137838
   
   with help from (in alphabetical order)
   P. Atkinson, C. Bannwarth, F. Bohle, G. Brandenburg, E. Caldeweyher
   M. Checinski, S. Dohm, S. Ehlert, S. Ehrlich, I. Gerasimov, C. Hölzer
   A. Katbashev, J. Kohn, J. Koopman, C. Lavigne, S. Lehtola, F. März, M. Müller,
   F. Musil, H. Neugebauer, J. Pisarek, C. Plett, P. Pracht, F. Pultar,
   J. Seibert, P. Shushkov, S. Spicher, M. Stahn, M. Steiner, T. Strunk,
   J. Stückrath, T. Rose, and J. Unsleber
   
 * started run on 2026/05/23 at 12:32:12.429     
   ID    Z sym.   atoms
    1    7 N      1, 5, 10, 17, 27, 34, 39, 43, 54, 56, 57
    2    6 C      2, 3, 6-8, 11-14, 16, 18, 21-23, 28-31, 33, 35-38, 40,
                  44-48, 50-53, 55, 58
    3    8 O      4, 9, 15, 19, 20, 24-26, 32, 41, 49
    4   16 S      42
    5    1 H      59-117

           -------------------------------------------------
          |                Calculation Setup                |
           -------------------------------------------------

          program call               : /home/xchen/software/xtb-6.7.1/xtb-dist/bin/xtb /home/xchen/Test/benchmark/md_sampled/04_7_0231_n2/snap_0033.xyz --charge -2 --gfn 2 --norestart
          coordinate file            : /home/xchen/Test/benchmark/md_sampled/04_7_0231_n2/snap_0033.xyz
          omp threads                :                    48


           -------------------------------------------------
          |                 G F N 2 - x T B                 |
           -------------------------------------------------

        Reference                      10.1021/acs.jctc.8b01176
      * Hamiltonian:
        H0-scaling (s, p, d)           1.850000    2.230000    2.230000
        zeta-weighting                 0.500000
      * Dispersion:
        s8                             2.700000
        a1                             0.520000
        a2                             5.000000
        s9                             5.000000
      * Repulsion:
        kExp                           1.500000    1.000000
        rExp                           1.000000
      * Coulomb:
        alpha                          2.000000
        third order                    shell-resolved
        anisotropic                    true
        a3                             3.000000
        a5                             4.000000
        cn-shift                       1.200000
        cn-exp                         4.000000
        max-rad                        5.000000


          ...................................................
          :                      SETUP                      :
          :.................................................:
          :  # basis functions                 297          :
          :  # atomic orbitals                 296          :
          :  # shells                          176          :
          :  # electrons                       328          :
          :  max. iterations                   250          :
          :  Hamiltonian                  GFN2-xTB          :
          :  restarted?                      false          :
          :  GBSA solvation                  false          :
          :  PC potential                    false          :
          :  electronic temp.          300.0000000     K    :
          :  accuracy                    1.0000000          :
          :  -> integral cutoff          0.2500000E+02      :
          :  -> integral neglect         0.1000000E-07      :
          :  -> SCF convergence          0.1000000E-05 Eh   :
          :  -> wf. convergence          0.1000000E-03 e    :
          :  Broyden damping             0.4000000          :
          :  net charge                         -2          :
          :  unpaired electrons                  0          :
          ...................................................

 iter      E             dE          RMSdq      gap      omega  full diag
   1   -186.9757665 -0.186976E+03  0.425E+00    3.87       0.0  T
   2   -187.4746437 -0.498877E+00  0.220E+00    1.94       1.0  T
   3   -187.5006524 -0.260086E-01  0.120E+00    0.80       1.0  T
   4   -184.0798989  0.342075E+01  0.350E+00    0.08       1.0  T
   5   -187.5115359 -0.343164E+01  0.243E-01    0.23       1.0  T
   6   -187.5137699 -0.223399E-02  0.120E-01    0.20       1.0  T
   7   -187.5130045  0.765361E-03  0.817E-02    0.32       1.0  T
   8   -187.5131837 -0.179149E-03  0.673E-02    0.32       1.0  T
   9   -187.5132475 -0.638416E-04  0.620E-02    0.30       1.0  T
  10   -187.5133662 -0.118713E-03  0.562E-02    0.28       1.0  T
  11   -187.5134550 -0.887449E-04  0.525E-02    0.27       1.0  T
  12   -187.5135415 -0.865194E-04  0.486E-02    0.26       1.0  T
  13   -187.5135093  0.322182E-04  0.501E-02    0.26       1.0  T
  14   -187.5139445 -0.435254E-03  0.270E-02    0.21       1.0  T
  15   -187.5139163  0.282177E-04  0.290E-02    0.22       1.0  T
  16   -187.5139088  0.755827E-05  0.294E-02    0.22       1.0  T
  17   -187.5140641 -0.155353E-03  0.173E-02    0.17       1.0  T
  18   -187.5141253 -0.611748E-04  0.694E-03    0.18       1.3  T
  19   -187.5141275 -0.220489E-05  0.320E-03    0.19       2.9  T
  20   -187.5140660  0.615007E-04  0.157E-02    0.17       1.0  T
  21   -187.5141181 -0.520888E-04  0.682E-03    0.18       1.4  T
  22   -187.5141283 -0.102414E-04  0.236E-03    0.18       3.9  T
  23   -187.5141296 -0.126076E-05  0.776E-04    0.18      11.9  T
  24   -187.5141297 -0.138634E-06  0.228E-04    0.18      40.6  T
  25   -187.5141297 -0.997849E-08  0.999E-05    0.18      92.5  T

   *** convergence criteria satisfied after 25 iterations ***

         #    Occupation            Energy/Eh            Energy/eV
      -------------------------------------------------------------
         1        2.0000           -0.5995449             -16.3144
       ...           ...                  ...                  ...
       158        2.0000           -0.2040515              -5.5525
       159        2.0000           -0.1978470              -5.3837
       160        2.0000           -0.1863728              -5.0715
       161        2.0000           -0.1615558              -4.3962
       162        2.0000           -0.1595772              -4.3423
       163        2.0000           -0.1512284              -4.1151
       164        1.9440           -0.1343951              -3.6571 (HOMO)
       165        0.0543           -0.1276257              -3.4729 (LUMO)
       166        0.0017           -0.1242979              -3.3823
       167                         -0.0986004              -2.6831
       168                         -0.0805441              -2.1917
       169                         -0.0785697              -2.1380
       ...                                ...                  ...
       296                          0.8863137              24.1178
      -------------------------------------------------------------
                  HL-Gap            0.0067694 Eh            0.1842 eV
             Fermi-level           -0.1310253 Eh           -3.5654 eV

 SCC (total)                   0 d,  0 h,  0 min, 39.786 sec
 SCC setup                      ...        0 min,  0.035 sec (  0.089%)
 Dispersion                     ...        0 min,  0.132 sec (  0.331%)
 classical contributions        ...        0 min,  0.008 sec (  0.021%)
 integral evaluation            ...        0 min,  0.544 sec (  1.368%)
 iterations                     ...        0 min, 37.619 sec ( 94.554%)
 molecular gradient             ...        0 min,  1.418 sec (  3.564%)
 printout                       ...        0 min,  0.029 sec (  0.073%)

         :::::::::::::::::::::::::::::::::::::::::::::::::::::
         ::                     SUMMARY                     ::
         :::::::::::::::::::::::::::::::::::::::::::::::::::::
         :: total energy            -185.541973649343 Eh    ::
         :: gradient norm              0.351444125395 Eh/a0 ::
         :: HOMO-LUMO gap              0.184203578024 eV    ::
         ::.................................................::
         :: SCC energy              -187.507890803394 Eh    ::
         :: -> isotropic ES            0.724722675406 Eh    ::
         :: -> anisotropic ES          0.013646899264 Eh    ::
         :: -> anisotropic XC          0.064042676927 Eh    ::
         :: -> dispersion             -0.140359607508 Eh    ::
         :: repulsion energy           1.965917154052 Eh    ::
         :: add. restraining           0.000000000000 Eh    ::
         :: total charge              -1.999999999999 e     ::
         :::::::::::::::::::::::::::::::::::::::::::::::::::::

           -------------------------------------------------
          |                Property Printout                |
           -------------------------------------------------

    * Orbital Energies and Occupations

         #    Occupation            Energy/Eh            Energy/eV
      -------------------------------------------------------------
         1        2.0000           -0.5995449             -16.3144
       ...           ...                  ...                  ...
       152        2.0000           -0.2499770              -6.8022
       153        2.0000           -0.2462291              -6.7002
       154        2.0000           -0.2326169              -6.3298
       155        2.0000           -0.2324068              -6.3241
       156        2.0000           -0.2292111              -6.2372
       157        2.0000           -0.2246125              -6.1120
       158        2.0000           -0.2040515              -5.5525
       159        2.0000           -0.1978470              -5.3837
       160        2.0000           -0.1863728              -5.0715
       161        2.0000           -0.1615558              -4.3962
       162        2.0000           -0.1595772              -4.3423
       163        2.0000           -0.1512284              -4.1151
       164        1.9440           -0.1343951              -3.6571 (HOMO)
       165        0.0543           -0.1276257              -3.4729 (LUMO)
       166        0.0017           -0.1242979              -3.3823
       167                         -0.0986004              -2.6831
       168                         -0.0805441              -2.1917
       169                         -0.0785697              -2.1380
       170                         -0.0748463              -2.0367
       171                         -0.0701840              -1.9098
       172                         -0.0607365              -1.6527
       173                         -0.0519265              -1.4130
       174                          0.0080671               0.2195
       175                          0.0262162               0.7134
       ...                                ...                  ...
       296                          0.8863137              24.1178
      -------------------------------------------------------------
                  HL-Gap            0.0067694 Eh            0.1842 eV
             Fermi-level           -0.1310253 Eh           -3.5654 eV

     #   Z          covCN         q      C6AA      α(0)
     1   7 N        2.684    -0.174    24.776     7.393
     2   6 C        3.760     0.020    20.292     6.422
     3   6 C        2.745     0.274    22.366     7.744
     4   8 O        0.860    -0.409    21.856     6.268
     5   7 N        2.702    -0.158    24.425     7.340
     6   6 C        3.786     0.037    19.967     6.365
     7   6 C        2.755     0.277    22.315     7.736
     8   6 C        3.795     0.031    20.063     6.378
     9   8 O        0.857    -0.445    22.598     6.374
    10   7 N        2.686    -0.212    25.619     7.517
    11   6 C        3.808    -0.061    21.658     6.625
    12   6 C        2.762     0.275    22.345     7.741
    13   6 C        3.761    -0.061    21.722     6.644
    14   6 C        3.804     0.051    19.715     6.321
    15   8 O        0.857    -0.448    22.671     6.384
    16   6 C        2.694     0.355    20.970     7.495
    17   7 N        2.695    -0.194    25.218     7.458
    18   6 C        3.792    -0.109    22.600     6.770
    19   8 O        0.856    -0.564    25.248     6.737
    20   8 O        0.856    -0.618    26.577     6.912
    21   6 C        2.803     0.260    22.628     7.793
    22   6 C        2.676     0.365    20.813     7.465
    23   6 C        3.796     0.036    19.971     6.363
    24   8 O        0.864    -0.490    23.567     6.509
    25   8 O        0.856    -0.537    24.611     6.651
    26   8 O        0.856    -0.604    26.213     6.864
    27   7 N        2.748    -0.206    25.468     7.495
    28   6 C        3.829    -0.062    21.663     6.622
    29   6 C        2.748     0.263    22.563     7.778
    30   6 C        3.792    -0.053    21.527     6.607
    31   6 C        3.774     0.018    20.304     6.420
    32   8 O        0.859    -0.413    21.932     6.279
    33   6 C        3.788    -0.059    21.652     6.627
    34   7 N        2.681    -0.200    25.352     7.478
    35   6 C        3.851    -0.071    21.819     6.644
    36   6 C        3.728     0.020    20.330     6.437
    37   6 C        2.773     0.275    22.348     7.742
    38   6 C        3.788    -0.003    20.641     6.471
    39   7 N        2.631    -0.339    28.725     7.960
    40   6 C        3.799     0.031    20.061     6.377
    41   8 O        0.857    -0.453    22.771     6.398
    42  16 S        2.000    -0.214   150.183    20.626
    43   7 N        2.687    -0.206    25.477     7.496
    44   6 C        3.868    -0.037    21.198     6.547
    45   6 C        3.736    -0.034    21.270     6.582
    46   6 C        2.737     0.227    23.224     7.890
    47   6 C        3.737    -0.111    22.705     6.800
    48   6 C        3.797    -0.066    21.775     6.645
    49   8 O        0.858    -0.450    22.698     6.388
    50   6 C        3.736    -0.107    22.639     6.790
    51   6 C        3.795    -0.070    21.842     6.655
    52   6 C        3.791    -0.073    21.903     6.665
    53   6 C        3.715     0.010    20.534     6.474
    54   7 N        2.682    -0.213    25.635     7.520
    55   6 C        2.733     0.231    23.145     7.876
    56   7 N        1.823    -0.457    33.041     8.517
    57   7 N        2.688    -0.306    27.884     7.843
    58   6 C        3.747    -0.114    22.748     6.803
    59   1 H        0.859     0.202     1.097     1.641
    60   1 H        0.925     0.035     2.510     2.478
    61   1 H        0.861     0.191     1.151     1.680
    62   1 H        0.920     0.069     2.098     2.265
    63   1 H        0.925     0.052     2.295     2.369
    64   1 H        0.861     0.191     1.152     1.681
    65   1 H        0.928     0.069     2.094     2.263
    66   1 H        0.922     0.051     2.310     2.377
    67   1 H        0.907     0.002     3.023     2.720
    68   1 H        0.908     0.002     3.024     2.720
    69   1 H        0.924     0.056     2.243     2.342
    70   1 H        0.851     0.221     1.005     1.571
    71   1 H        0.919     0.020     2.740     2.589
    72   1 H        0.927     0.034     2.536     2.490
    73   1 H        0.924     0.069     2.102     2.267
    74   1 H        0.860     0.193     1.141     1.673
    75   1 H        0.919     0.038     2.480     2.463
    76   1 H        0.925     0.074     2.038     2.233
    77   1 H        0.919     0.042     2.423     2.434
    78   1 H        0.921     0.025     2.664     2.553
    79   1 H        0.918     0.041     2.442     2.444
    80   1 H        0.922     0.059     2.207     2.323
    81   1 H        0.914     0.010     2.892     2.660
    82   1 H        0.861     0.183     1.197     1.714
    83   1 H        0.926     0.074     2.039     2.233
    84   1 H        0.923     0.078     2.002     2.213
    85   1 H        0.929     0.068     2.107     2.270
    86   1 H        0.923    -0.003     3.112     2.759
    87   1 H        0.911     0.036     2.507     2.477
    88   1 H        0.924     0.043     2.404     2.425
    89   1 H        0.860     0.144     1.442     1.881
    90   1 H        0.858     0.118     1.637     2.005
    91   1 H        0.927     0.077     2.015     2.220
    92   1 H        0.861     0.175     1.244     1.747
    93   1 H        0.920     0.074     2.041     2.234
    94   1 H        0.928     0.073     2.055     2.242
    95   1 H        0.914     0.036     2.504     2.475
    96   1 H        0.922     0.040     2.451     2.449
    97   1 H        0.927     0.052     2.295     2.369
    98   1 H        0.914     0.044     2.400     2.423
    99   1 H        0.922     0.032     2.563     2.504
   100   1 H        0.927     0.034     2.526     2.485
   101   1 H        0.923     0.039     2.462     2.454
   102   1 H        0.912     0.016     2.797     2.616
   103   1 H        0.926     0.043     2.412     2.429
   104   1 H        0.925     0.060     2.197     2.318
   105   1 H        0.926     0.056     2.240     2.341
   106   1 H        0.926     0.037     2.488     2.467
   107   1 H        0.925     0.048     2.351     2.398
   108   1 H        0.923     0.040     2.453     2.449
   109   1 H        0.915     0.040     2.450     2.448
   110   1 H        0.925     0.049     2.335     2.390
   111   1 H        0.860     0.165     1.303     1.788
   112   1 H        0.860     0.107     1.737     2.064
   113   1 H        0.860     0.159     1.341     1.814
   114   1 H        0.860     0.189     1.164     1.690
   115   1 H        0.925     0.091     1.873     2.140
   116   1 H        0.921     0.034     2.532     2.489
   117   1 H        0.920     0.049     2.335     2.390

 Mol. C6AA /au·bohr⁶  :     136483.766119
 Mol. C8AA /au·bohr⁸  :    3092532.775387
 Mol. α(0) /au        :        551.764216


Wiberg/Mayer (AO) data.
largest (>0.10) Wiberg bond orders for each atom

 ---------------------------------------------------------------------------
     #   Z sym  total        # sym  WBO       # sym  WBO       # sym  WBO
 ---------------------------------------------------------------------------
     1   7 N    3.396 --     7 C    1.223     2 C    1.010    59 H    0.906
                             9 O    0.173
     2   6 C    3.972 --     1 N    1.010    51 C    0.977    60 H    0.947
                             3 C    0.880
     3   6 C    3.941 --     4 O    1.722     5 N    1.254     2 C    0.880
     4   8 O    2.048 --     3 C    1.722     5 N    0.186
     5   7 N    3.459 --     3 C    1.254     6 C    1.021    61 H    0.920
                             4 O    0.186
     6   6 C    3.970 --     5 N    1.021    58 C    0.991    62 H    0.941
                            46 C    0.896
     7   6 C    3.936 --     9 O    1.682     1 N    1.223     8 C    0.944
     8   6 C    3.964 --    11 C    0.978    10 N    0.966    63 H    0.956
                             7 C    0.944
     9   8 O    1.996 --     7 C    1.682     1 N    0.173
    10   7 N    3.377 --    12 C    1.211     8 C    0.966    64 H    0.923
                            15 O    0.179
    11   6 C    3.980 --    13 C    0.983     8 C    0.978    65 H    0.970
                            66 H    0.969
    12   6 C    3.939 --    15 O    1.696    10 N    1.211    14 C    0.930
    13   6 C    3.952 --    11 C    0.983    68 H    0.975    67 H    0.973
                            16 C    0.920
    14   6 C    3.966 --    17 N    0.997    18 C    0.979    69 H    0.943
                            12 C    0.930
    15   8 O    2.000 --    12 C    1.696    10 N    0.179
    16   6 C    3.944 --    19 O    1.562    20 O    1.442    13 C    0.920
    17   7 N    3.458 --    21 C    1.299    14 C    0.997    70 H    0.848
                            24 O    0.191
    18   6 C    3.961 --    14 C    0.979    72 H    0.977    71 H    0.972
                            22 C    0.854
    19   8 O    1.863 --    16 C    1.562    20 O    0.232
    20   8 O    1.737 --    16 C    1.442    19 O    0.232
    21   6 C    3.955 --    24 O    1.600    17 N    1.299    23 C    0.959
    22   6 C    3.944 --    25 O    1.609    26 O    1.453    18 C    0.854
    23   6 C    3.956 --    28 C    0.969    27 N    0.963    21 C    0.959
                            73 H    0.949
    24   8 O    1.958 --    21 C    1.600    17 N    0.191
    25   8 O    1.922 --    22 C    1.609    26 O    0.223
    26   8 O    1.858 --    22 C    1.453    25 O    0.223
    27   7 N    3.432 --    29 C    1.265    23 C    0.963    74 H    0.907
                            32 O    0.205
    28   6 C    3.983 --    30 C    1.006    23 C    0.969    75 H    0.968
                            76 H    0.958
    29   6 C    3.952 --    32 O    1.711    27 N    1.265    31 C    0.912
    30   6 C    3.994 --    33 C    1.009    28 C    1.006    78 H    0.978
                            77 H    0.966
    31   6 C    3.957 --    35 C    0.989    34 N    0.971    79 H    0.942
                            29 C    0.912
    32   8 O    2.044 --    29 C    1.711    27 N    0.205
    33   6 C    3.990 --    30 C    1.009    36 C    0.983    81 H    0.978
                            80 H    0.972
    34   7 N    3.420 --    37 C    1.238    31 C    0.971    82 H    0.922
                            41 O    0.197
    35   6 C    3.986 --    38 C    1.008    31 C    0.989    84 H    0.966
                            83 H    0.962
    36   6 C    3.981 --    39 N    1.028    33 C    0.983    85 H    0.977
                            86 H    0.973
    37   6 C    3.938 --    41 O    1.648    34 N    1.238    40 C    0.966
    38   6 C    3.975 --    35 C    1.008    42 S    1.002    88 H    0.973
                            87 H    0.958
    39   7 N    3.008 --    36 C    1.028    90 H    0.969    89 H    0.965
    40   6 C    3.967 --    44 C    0.970    37 C    0.966    43 N    0.965
                            91 H    0.941
    41   8 O    1.980 --    37 C    1.648    34 N    0.197
    42  16 S    2.110 --    45 C    1.021    38 C    1.002
    43   7 N    3.394 --    46 C    1.221    40 C    0.965    92 H    0.931
                            49 O    0.178
    44   6 C    3.978 --    47 C    1.000    48 C    0.993    40 C    0.970
                            93 H    0.946
    45   6 C    3.977 --    42 S    1.021    94 H    0.979    96 H    0.975
                            95 H    0.974
    46   6 C    3.885 --    49 O    1.676    43 N    1.221     6 C    0.896
    47   6 C    3.993 --    44 C    1.000    97 H    0.986    99 H    0.986
                            98 H    0.984
    48   6 C    3.993 --    50 C    1.013    44 C    0.993   100 H    0.979
                           101 H    0.973
    49   8 O    1.979 --    46 C    1.676    43 N    0.178
    50   6 C    3.992 --    48 C    1.013   103 H    0.989   102 H    0.989
                           104 H    0.978
    51   6 C    3.987 --    52 C    1.003   105 H    0.977     2 C    0.977
                           106 H    0.973
    52   6 C    3.986 --    51 C    1.003    53 C    1.001   108 H    0.973
                           107 H    0.966
    53   6 C    3.973 --    52 C    1.001    54 N    0.981   110 H    0.972
                           109 H    0.970
    54   7 N    3.341 --    55 C    1.180    53 C    0.981   111 H    0.939
                            56 N    0.154
    55   6 C    3.959 --    56 N    1.624    54 N    1.180    57 N    1.137
    56   7 N    2.898 --    55 C    1.624   112 H    0.956    54 N    0.154
                            57 N    0.115
    57   7 N    3.240 --    55 C    1.137   113 H    0.955   114 H    0.946
                            56 N    0.115
    58   6 C    3.987 --     6 C    0.991   116 H    0.978   117 H    0.977
                           115 H    0.973
    59   1 H    0.958 --     1 N    0.906
    60   1 H    0.998 --     2 C    0.947
    61   1 H    0.963 --     5 N    0.920
    62   1 H    0.994 --     6 C    0.941
    63   1 H    0.997 --     8 C    0.956
    64   1 H    0.963 --    10 N    0.923
    65   1 H    0.995 --    11 C    0.970
    66   1 H    0.997 --    11 C    0.969
    67   1 H    0.999 --    13 C    0.973
    68   1 H    1.000 --    13 C    0.975
    69   1 H    0.996 --    14 C    0.943
    70   1 H    0.951 --    17 N    0.848
    71   1 H    1.000 --    18 C    0.972
    72   1 H    0.998 --    18 C    0.977
    73   1 H    0.995 --    23 C    0.949
    74   1 H    0.963 --    27 N    0.907
    75   1 H    0.998 --    28 C    0.968
    76   1 H    0.994 --    28 C    0.958
    77   1 H    0.998 --    30 C    0.966
    78   1 H    0.999 --    30 C    0.978
    79   1 H    0.998 --    31 C    0.942
    80   1 H    0.996 --    33 C    0.972
    81   1 H    1.000 --    33 C    0.978
    82   1 H    0.966 --    34 N    0.922
    83   1 H    0.994 --    35 C    0.962
    84   1 H    0.994 --    35 C    0.966
    85   1 H    0.995 --    36 C    0.977
    86   1 H    1.000 --    36 C    0.973
    87   1 H    0.999 --    38 C    0.958
    88   1 H    0.998 --    38 C    0.973
    89   1 H    0.979 --    39 N    0.965
    90   1 H    0.986 --    39 N    0.969
    91   1 H    0.994 --    40 C    0.941
    92   1 H    0.969 --    43 N    0.931
    93   1 H    0.994 --    44 C    0.946
    94   1 H    0.994 --    45 C    0.979
    95   1 H    0.999 --    45 C    0.974
    96   1 H    0.998 --    45 C    0.975
    97   1 H    0.997 --    47 C    0.986
    98   1 H    0.998 --    47 C    0.984
    99   1 H    0.999 --    47 C    0.986
   100   1 H    0.999 --    48 C    0.979
   101   1 H    0.998 --    48 C    0.973
   102   1 H    1.000 --    50 C    0.989
   103   1 H    0.998 --    50 C    0.989
   104   1 H    0.996 --    50 C    0.978
   105   1 H    0.997 --    51 C    0.977
   106   1 H    0.998 --    51 C    0.973
   107   1 H    0.998 --    52 C    0.966
   108   1 H    0.998 --    52 C    0.973
   109   1 H    0.998 --    53 C    0.970
   110   1 H    0.997 --    53 C    0.972
   111   1 H    0.973 --    54 N    0.939
   112   1 H    0.989 --    56 N    0.956
   113   1 H    0.975 --    57 N    0.955
   114   1 H    0.964 --    57 N    0.946
   115   1 H    0.992 --    58 C    0.973
   116   1 H    0.998 --    58 C    0.978
   117   1 H    0.998 --    58 C    0.977
 ---------------------------------------------------------------------------

Topologies differ in total number of bonds
Writing topology from bond orders to xtbtopo.mol

molecular dipole:
                 x           y           z       tot (Debye)
 q only:        2.539      14.308       0.534
   full:        2.457      14.061       0.640      36.316
molecular quadrupole (traceless):
                xx          xy          yy          xz          yz          zz
 q only:       17.766       5.670     -66.156      70.405     -82.469      48.390
  q+dip:        7.121      22.536     -59.259      66.722     -83.202      52.138
   full:        6.868      23.488     -58.076      65.161     -84.439      51.208


           -------------------------------------------------
          | TOTAL ENERGY             -185.541973649343 Eh   |
          | GRADIENT NORM               0.351444125395 Eh/α |
          | HOMO-LUMO GAP               0.184203578024 eV   |
           -------------------------------------------------

------------------------------------------------------------------------
 * finished run on 2026/05/23 at 12:32:53.385     
------------------------------------------------------------------------
 total:
 * wall-time:     0 d,  0 h,  0 min, 40.955 sec
 *  cpu-time:     0 d,  0 h,  0 min, 45.569 sec
 * ratio c/w:     1.113 speedup
 SCF:
 * wall-time:     0 d,  0 h,  0 min, 39.787 sec
 *  cpu-time:     0 d,  0 h,  0 min, 44.558 sec
 * ratio c/w:     1.120 speedup

normal termination of xtb
