      -----------------------------------------------------------      
     |                   =====================                   |     
     |                           x T B                           |     
     |                   =====================                   |     
     |                         S. Grimme                         |     
     |          Mulliken Center for Theoretical Chemistry        |     
     |                    University of Bonn                     |     
      -----------------------------------------------------------      

   * xtb version 6.7.1 (26dd68d) compiled by 'froitzheim@fs7' on 2026-05-14

   xtb is free software: you can redistribute it and/or modify it under
   the terms of the GNU Lesser General Public License as published by
   the Free Software Foundation, either version 3 of the License, or
   (at your option) any later version.
   
   xtb is distributed in the hope that it will be useful,
   but WITHOUT ANY WARRANTY; without even the implied warranty of
   MERCHANTABILITY or FITNESS FOR A PARTICULAR PURPOSE.  See the
   GNU Lesser General Public License for more details.
   
   Cite this work as:
   * C. Bannwarth, E. Caldeweyher, S. Ehlert, A. Hansen, P. Pracht,
     J. Seibert, S. Spicher, S. Grimme, WIREs Comput. Mol. Sci., 2020, 11,
     e01493. DOI: 10.1002/wcms.1493
   
   for g-xTB:
   * T. Froitzheim, M. Müller, A. Hansen, S. Grimme, ChemRxiv, 2025, preprint.
     DOI: 10.26434/chemrxiv-2025-bjxv
   for GFN2-xTB:
   * C. Bannwarth, S. Ehlert and S. Grimme., J. Chem. Theory Comput., 2019,
     15, 1652-1671. DOI: 10.1021/acs.jctc.8b01176
   for GFN1-xTB:
   * S. Grimme, C. Bannwarth, P. Shushkov, J. Chem. Theory Comput., 2017,
     13, 1989-2009. DOI: 10.1021/acs.jctc.7b00118
   for GFN0-xTB:
   * P. Pracht, E. Caldeweyher, S. Ehlert, S. Grimme, ChemRxiv, 2019, preprint.
     DOI: 10.26434/chemrxiv.8326202.v1
   for GFN-FF:
   * S. Spicher and S. Grimme, Angew. Chem. Int. Ed., 2020, 59, 15665-15673.
     DOI: 10.1002/anie.202004239
   
   for ALPB and GBSA implicit solvation:
   * S. Ehlert, M. Stahn, S. Spicher, S. Grimme, J. Chem. Theory Comput.,
     2021, 17, 4250-4261. DOI: 10.1021/acs.jctc.1c00471
   
   for ddCOSMO and CPCM-X implicit solvation:
   * M. Stahn, S. Ehlert, S. Grimme, J. Phys. Chem. A,
     2023, XX, XXXX-XXXX. DOI: 10.1021/acs.jpca.3c04382
   
   for DFT-D4:
   * E. Caldeweyher, C. Bannwarth and S. Grimme, J. Chem. Phys., 2017,
     147, 034112. DOI: 10.1063/1.4993215
   * E. Caldeweyher, S. Ehlert, A. Hansen, H. Neugebauer, S. Spicher,
     C. Bannwarth and S. Grimme, J. Chem. Phys., 2019, 150, 154122.
     DOI: 10.1063/1.5090222
   * E. Caldeweyher, J.-M. Mewes, S. Ehlert and S. Grimme, Phys. Chem. Chem. Phys.
     2020, 22, 8499-8512. DOI: 10.1039/D0CP00502A
   
   for sTDA-xTB:
   * S. Grimme and C. Bannwarth, J. Chem. Phys., 2016, 145, 054103.
     DOI: 10.1063/1.4959605
   
   in the mass-spec context:
   * V. Asgeirsson, C. Bauer and S. Grimme, Chem. Sci., 2017, 8, 4879.
     DOI: 10.1039/c7sc00601b
   * J. Koopman and S. Grimme, ACS Omega 2019, 4, 12, 15120-15133.
     DOI: 10.1021/acsomega.9b02011
   
   for metadynamics refer to:
   * S. Grimme, J. Chem. Theory Comput., 2019, 155, 2847-2862
     DOI: 10.1021/acs.jctc.9b00143
   
   for SPH calculations refer to:
   * S. Spicher and S. Grimme, J. Chem. Theory Comput., 2021, 17, 1701-1714
     DOI: 10.1021/acs.jctc.0c01306
   
   for ONIOM refer to:
   * C. Plett, A. Katbashev, S. Ehlert, S. Grimme, M. Bursch,
     Phys. Chem. Chem. Phys., 2023, 25, 17860-17868. DOI: 10.1039/D3CP02178E
   
   for DIPRO refer to:
   * J. Kohn, N. Gildemeister, S. Grimme, D. Fazzi, A. Hansen,
     J. Chem. Phys. 159, 144106 (2023). DOI: 10.1063/5.0167484
   
   for PTB refer to:
   * S. Grimme, M. Mueller, A. Hansen, J. Chem. Phys., 2023, 158, 124111.
     DOI: 10.1063/5.0137838
   
   with help from (in alphabetical order)
   P. Atkinson, C. Bannwarth, F. Bohle, G. Brandenburg, E. Caldeweyher,
   M. Checinski, S. Dohm, S. Ehlert, S. Ehrlich, M. Friede, T. Froitzheim,
   I. Gerasimov, C. Hölzer, A. Katbashev, J. Kohn, J. Koopman, C. Lavigne,
   S. Lehtola, F. März, M. Müller, F. Musil, H. Neugebauer, J. Pisarek,
   C. Plett, P. Pracht, F. Pultar, J. Seibert, P. Shushkov, S. Spicher,
   M. Stahn, M. Steiner, T. Strunk, J. Stückrath, T. Rose, and J. Unsleber
   
 * started run on 2026/05/23 at 12:32:53.642     
   ID    Z sym.   atoms
    1    7 N      1, 5, 10, 17, 27, 34, 39, 43, 54, 56, 57
    2    6 C      2, 3, 6-8, 11-14, 16, 18, 21-23, 28-31, 33, 35-38, 40,
                  44-48, 50-53, 55, 58
    3    8 O      4, 9, 15, 19, 20, 24-26, 32, 41, 49
    4   16 S      42
    5    1 H      59-117

           -------------------------------------------------
          |                Calculation Setup                |
           -------------------------------------------------

          program call               : /home/xchen/software/xtb-6.7.1-gxtb/bin/xtb /home/xchen/Test/benchmark/md_sampled/04_7_0231_n2/snap_0033.xyz --charge -2 --gxtb --norestart
          coordinate file            : /home/xchen/Test/benchmark/md_sampled/04_7_0231_n2/snap_0033.xyz
          omp threads                :                    48

core increment energy         -2.9312527735450E+03 Eh
dispersion energy              2.5673498135698E-02 Eh
molecular charge              -2.0000000000000E+00 e
number of electrons            3.2799999999710E+02 e
number of unpaired electrons   0.0000000000000E+00 e
wavefunction                   restricted
integral cutoff                2.6907767250513E+01 bohr
energy convergence             1.0000000000000E-06 Eh
density convergence            2.0000000000000E-05 e

------------------------------------------------------------
  cycle        total energy    energy error   density error
------------------------------------------------------------
      1     -3195.881883521  -2.6465478E+02   0.0000000E+00
      2     -3196.378180457  -4.9629694E-01   2.0910994E-02
      3     -3196.694476012  -3.1629555E-01   1.6383438E-02
      4     -3197.359115223  -6.6463921E-01   1.2899425E-02
      5     -3197.369128594  -1.0013372E-02   8.7701323E-04
      6     -3197.369931333  -8.0273856E-04   1.7596625E-04
      7     -3197.370000837  -6.9503655E-05   5.1533367E-05
      8     -3197.370005707  -4.8703393E-06   1.5880948E-05
      9     -3197.370006382  -6.7474235E-07   2.7266447E-06
------------------------------------------------------------

electronic energy             -2.6614290633489E+02 Eh
total energy                  -3.1973700063818E+03 Eh

Post processing:
 | Mayer-Wiberg bond orders
 | Molecular Multipole Moments

 total:                                  44.866 sec
 - increment                              0.000 sec (  0%)
 - repulsion                              0.073 sec (  0%)
 - dispersion                             0.692 sec (  1%)
 - coulomb                                0.148 sec (  0%)
 - exchange                               0.005 sec (  0%)
 - hamiltonian                           31.133 sec ( 69%)
 - acp                                    0.424 sec (  0%)
 - spin polarization                      0.000 sec (  0%)
 - post processing                        0.666 sec (  1%)
 - scc                                   10.848 sec ( 24%)
 - coulomb gradient                       0.117 sec (  0%)
 - dispersion gradient                    0.065 sec (  0%)
 - exchange gradient                      0.169 sec (  0%)
 - repulsion gradient                     0.006 sec (  0%)
 - acp gradient                           0.452 sec (  1%)
 - hamiltonian gradient                   0.725 sec (  1%)
 - gradient                               1.534 sec (  3%)

         :::::::::::::::::::::::::::::::::::::::::::::::::::::
         ::                     SUMMARY                     ::
         :::::::::::::::::::::::::::::::::::::::::::::::::::::
         :: total energy           -3197.370006381754 Eh    ::
         :: gradient norm              0.386462067528 Eh/a0 ::
         :: HOMO-LUMO gap              5.892026655521 eV    ::
         ::.................................................::
         :: add. restraining           0.000000000000 Eh    ::
         :: total charge              -2.000000000000 e     ::
         :::::::::::::::::::::::::::::::::::::::::::::::::::::

           -------------------------------------------------
          |                Property Printout                |
           -------------------------------------------------

    * Orbital Energies and Occupations
------------------------------------------------------------------
      #    Occupation            Energy/Eh            Energy/eV
------------------------------------------------------------------
      1        2.0000           -1.2155054             -33.0756
    ...           ...                  ...                  ...
    152        2.0000           -0.2127355              -5.7888
    153        2.0000           -0.2113483              -5.7511
    154        2.0000           -0.2038115              -5.5460
    155        2.0000           -0.1967974              -5.3551
    156        2.0000           -0.1932010              -5.2573
    157        2.0000           -0.1882506              -5.1226
    158        2.0000           -0.1797756              -4.8919
    159        2.0000           -0.1690905              -4.6012
    160        2.0000           -0.1520953              -4.1387
    161        2.0000           -0.1315757              -3.5804
    162        2.0000           -0.1236494              -3.3647
    163        2.0000           -0.1123174              -3.0563
    164        2.0000           -0.1011001              -2.7511 (HOMO)
    165                          0.1154279               3.1410 (LUMO)
    166                          0.1262264               3.4348
    167                          0.1301661               3.5420
    168                          0.1567799               4.2662
    169                          0.1748401               4.7576
    170                          0.1769068               4.8139
    171                          0.1837281               4.9995
    172                          0.1850763               5.0362
    173                          0.1987227               5.4075
    174                          0.2031946               5.5292
    175                          0.2260263               6.1505
    ...                                ...                  ...
    296                          0.9235196              25.1302
------------------------------------------------------------------
               HL-Gap            0.2165280 Eh            5.8920 eV
------------------------------------------------------------------

Atomic charges and shell populations (in atomic units):
-----------------------------------------------------------------
     #    Z                q          p(s)       p(p)       p(d)
-----------------------------------------------------------------
     1    7 N      -0.302315      1.387699   3.914616
     2    6 C       0.014546      1.129462   2.855992
     3    6 C       0.430927      1.110275   2.458799
     4    8 O      -0.525727      1.850947   4.674780
     5    7 N      -0.334851      1.343225   3.991625
     6    6 C       0.015573      1.116451   2.867977
     7    6 C       0.422268      1.118379   2.459352
     8    6 C      -0.006200      1.119391   2.886809
     9    8 O      -0.548752      1.856924   4.691828
    10    7 N      -0.353882      1.392833   3.961049
    11    6 C      -0.163436      1.148197   3.015239
    12    6 C       0.424680      1.117985   2.457336
    13    6 C      -0.169139      1.169596   2.999543
    14    6 C       0.006588      1.098761   2.894650
    15    8 O      -0.565484      1.852900   4.712584
    16    6 C       0.505961      1.079813   2.414226
    17    7 N      -0.334900      1.374577   3.960324
    18    6 C      -0.224976      1.169772   3.055204
    19    8 O      -0.673047      1.858184   4.814863
    20    8 O      -0.747674      1.871473   4.876201
    21    6 C       0.401107      1.105622   2.493271
    22    6 C       0.519979      1.082678   2.397343
    23    6 C       0.016355      1.122846   2.860800
    24    8 O      -0.592238      1.856307   4.735931
    25    8 O      -0.635025      1.851325   4.783699
    26    8 O      -0.722140      1.853734   4.868406
    27    7 N      -0.365579      1.383508   3.982071
    28    6 C      -0.167195      1.151430   3.015765
    29    6 C       0.402847      1.101897   2.495256
    30    6 C      -0.182570      1.147443   3.035126
    31    6 C       0.004465      1.142555   2.852981
    32    8 O      -0.526819      1.850750   4.676069
    33    6 C      -0.169934      1.168527   3.001406
    34    7 N      -0.334539      1.362354   3.972185
    35    6 C      -0.182752      1.153202   3.029550
    36    6 C      -0.102754      1.137523   2.965231
    37    6 C       0.423063      1.103136   2.473801
    38    6 C      -0.127403      1.176485   2.950918
    39    7 N      -0.523136      1.431953   4.091183
    40    6 C       0.000549      1.114226   2.885225
    41    8 O      -0.561378      1.854577   4.706801
    42   16 S      -0.216581      1.869703   4.256099   0.090780
    43    7 N      -0.358232      1.369117   3.989115
    44    6 C      -0.123444      1.140552   2.982892
    45    6 C      -0.196773      1.179419   3.017354
    46    6 C       0.382179      1.148728   2.469093
    47    6 C      -0.250002      1.173898   3.076104
    48    6 C      -0.201366      1.155354   3.046012
    49    8 O      -0.545417      1.860405   4.685012
    50    6 C      -0.261663      1.173047   3.088615
    51    6 C      -0.204761      1.161940   3.042821
    52    6 C      -0.203708      1.160553   3.043154
    53    6 C      -0.060830      1.153823   2.907007
    54    7 N      -0.372298      1.350614   4.021684
    55    6 C       0.290997      1.079552   2.629451
    56    7 N      -0.591462      1.586374   4.005089
    57    7 N      -0.476510      1.373482   4.103029
    58    6 C      -0.255355      1.168011   3.087344
    59    1 H       0.271661      0.728339
    60    1 H       0.095057      0.904943
    61    1 H       0.283515      0.716485
    62    1 H       0.128680      0.871320
    63    1 H       0.110170      0.889830
    64    1 H       0.271769      0.728231
    65    1 H       0.115609      0.884391
    66    1 H       0.117172      0.882828
    67    1 H       0.074954      0.925046
    68    1 H       0.071872      0.928128
    69    1 H       0.125314      0.874686
    70    1 H       0.311897      0.688103
    71    1 H       0.102298      0.897702
    72    1 H       0.108755      0.891245
    73    1 H       0.139451      0.860549
    74    1 H       0.281570      0.718430
    75    1 H       0.088548      0.911452
    76    1 H       0.132672      0.867328
    77    1 H       0.099377      0.900623
    78    1 H       0.082105      0.917895
    79    1 H       0.098591      0.901409
    80    1 H       0.112328      0.887672
    81    1 H       0.064904      0.935096
    82    1 H       0.265084      0.734916
    83    1 H       0.127096      0.872904
    84    1 H       0.131499      0.868501
    85    1 H       0.134458      0.865542
    86    1 H       0.069023      0.930977
    87    1 H       0.096367      0.903633
    88    1 H       0.099036      0.900964
    89    1 H       0.228343      0.771657
    90    1 H       0.212425      0.787575
    91    1 H       0.140589      0.859411
    92    1 H       0.253959      0.746041
    93    1 H       0.126454      0.873546
    94    1 H       0.133552      0.866448
    95    1 H       0.097248      0.902752
    96    1 H       0.092018      0.907982
    97    1 H       0.107759      0.892241
    98    1 H       0.089467      0.910533
    99    1 H       0.085808      0.914192
   100    1 H       0.093606      0.906394
   101    1 H       0.104473      0.895527
   102    1 H       0.070646      0.929354
   103    1 H       0.100266      0.899734
   104    1 H       0.118080      0.881920
   105    1 H       0.125025      0.874975
   106    1 H       0.097467      0.902533
   107    1 H       0.101931      0.898069
   108    1 H       0.107883      0.892117
   109    1 H       0.093554      0.906446
   110    1 H       0.106573      0.893427
   111    1 H       0.261428      0.738572
   112    1 H       0.212835      0.787165
   113    1 H       0.244772      0.755228
   114    1 H       0.259028      0.740972
   115    1 H       0.143914      0.856086
   116    1 H       0.076897      0.923103
   117    1 H       0.103334      0.896666
-----------------------------------------------------------------


Wiberg/Mayer (AO) data.
largest (>0.10) Wiberg bond orders for each atom

 ---------------------------------------------------------------------------
     #   Z sym  total        # sym  WBO       # sym  WBO       # sym  WBO
 ---------------------------------------------------------------------------
     1   7 N    3.301 --     7 C    1.178     2 C    1.009    59 N    0.877
                             9 C    0.140
     2   6 C    3.948 --     1 N    1.009    51 C    0.979    60 N    0.933
                             3 C    0.873
     3   6 C    3.849 --     4 C    1.683     5 N    1.208     2 C    0.873
     4   8 C    1.967 --     3 C    1.683     5 N    0.152
     5   7 N    3.336 --     3 C    1.208     6 C    1.007    61 N    0.874
                             4 C    0.152
     6   6 C    3.938 --     5 N    1.007    58 C    0.995    62 N    0.928
                            46 C    0.883
     7   6 C    3.843 --     9 C    1.650     1 N    1.178     8 C    0.929
     8   6 C    3.934 --    11 C    0.982    10 N    0.961    63 N    0.941
                             7 C    0.929
     9   8 C    1.931 --     7 C    1.650     1 N    0.140
    10   7 N    3.274 --    12 C    1.180     8 C    0.961    64 N    0.880
                            15 C    0.148
    11   6 C    3.948 --    13 C    0.990     8 C    0.982    65 N    0.951
                            66 N    0.949
    12   6 C    3.845 --    15 C    1.661    10 N    1.180    14 C    0.914
    13   6 C    3.956 --    11 C    0.990    68 N    0.962    67 N    0.959
                            16 C    0.932
    14   6 C    3.938 --    18 C    0.991    17 N    0.984    69 N    0.929
                            12 C    0.914
    15   8 C    1.929 --    12 C    1.661    10 N    0.148
    16   6 C    3.867 --    19 C    1.520    20 C    1.392    13 C    0.932
    17   7 N    3.355 --    21 C    1.277    14 C    0.984    70 N    0.809
                            24 C    0.158
    18   6 C    3.943 --    14 C    0.991    72 N    0.959    71 N    0.954
                            22 C    0.869
    19   8 C    1.789 --    16 C    1.520    20 C    0.197
    20   8 C    1.664 --    16 C    1.392    19 C    0.197
    21   6 C    3.878 --    24 C    1.572    17 N    1.277    23 C    0.946
    22   6 C    3.857 --    25 C    1.568    26 C    1.392    18 C    0.869
    23   6 C    3.917 --    28 C    0.972    21 C    0.946    27 N    0.943
                            73 N    0.933
    24   8 C    1.890 --    21 C    1.572    17 N    0.158
    25   8 C    1.845 --    22 C    1.568    26 C    0.190
    26   8 C    1.745 --    22 C    1.392    25 C    0.190
    27   7 N    3.316 --    29 C    1.238    23 C    0.943    74 N    0.861
                            32 C    0.173
    28   6 C    3.952 --    30 C    1.010    23 C    0.972    75 N    0.953
                            76 N    0.937
    29   6 C    3.879 --    32 C    1.671    27 N    1.238    31 C    0.907
    30   6 C    3.967 --    28 C    1.010    33 C    1.010    78 N    0.962
                            77 N    0.945
    31   6 C    3.926 --    35 C    0.983    34 N    0.962    79 N    0.934
                            29 C    0.907
    32   8 C    1.969 --    29 C    1.671    27 N    0.173
    33   6 C    3.961 --    30 C    1.010    36 C    0.976    81 N    0.965
                            80 N    0.954
    34   7 N    3.335 --    37 C    1.225    31 C    0.962    82 N    0.883
                            41 C    0.168
    35   6 C    3.951 --    38 C    1.008    31 C    0.983    83 N    0.946
                            84 N    0.946
    36   6 C    3.946 --    39 N    1.023    33 C    0.976    86 N    0.960
                            85 N    0.958
    37   6 C    3.873 --    41 C    1.616    34 N    1.225    40 C    0.949
    38   6 C    3.942 --    35 C    1.008    42 O    0.994    88 N    0.957
                            87 N    0.947
    39   7 N    2.951 --    36 C    1.023    90 N    0.934    89 N    0.933
    40   6 C    3.935 --    44 C    0.978    43 N    0.952    37 C    0.949
                            91 N    0.927
    41   8 C    1.920 --    37 C    1.616    34 N    0.168
    42  16 O    2.119 --    45 C    1.017    38 C    0.994
    43   7 N    3.305 --    46 C    1.196    40 C    0.952    92 N    0.895
                            49 C    0.150
    44   6 C    3.963 --    47 C    1.003    48 C    0.985    40 C    0.978
                            93 N    0.926
    45   6 C    3.927 --    42 O    1.017    96 N    0.963    94 N    0.960
                            95 N    0.957
    46   6 C    3.829 --    49 C    1.661    43 N    1.196     6 C    0.883
    47   6 C    3.957 --    44 C    1.003    98 N    0.973    99 N    0.972
                            97 N    0.971
    48   6 C    3.963 --    50 C    1.016    44 C    0.985   100 N    0.963
                           101 N    0.958
    49   8 C    1.938 --    46 C    1.661    43 N    0.150
    50   6 C    3.954 --    48 C    1.016   102 N    0.976   103 N    0.975
                           104 N    0.960
    51   6 C    3.955 --    52 C    1.002     2 C    0.979   106 N    0.957
                           105 N    0.955
    52   6 C    3.959 --    53 C    1.003    51 C    1.002   108 N    0.957
                           107 N    0.951
    53   6 C    3.919 --    52 C    1.003    54 N    0.959   109 N    0.956
                           110 N    0.954
    54   7 N    3.237 --    55 C    1.160    53 C    0.959   111 N    0.897
                            56 N    0.124
    55   6 C    3.939 --    56 N    1.635    54 N    1.160    57 N    1.119
    56   7 N    2.838 --    55 C    1.635   112 N    0.917    54 N    0.124
                            57 N    0.112
    57   7 N    3.122 --    55 C    1.119   113 N    0.912   114 N    0.908
                            56 N    0.112
    58   6 C    3.949 --     6 C    0.995   116 N    0.969   117 N    0.961
                           115 N    0.956
    59   1 N    0.926 --     1 N    0.877
    60   1 N    0.991 --     2 C    0.933
    61   1 N    0.920 --     5 N    0.874
    62   1 N    0.983 --     6 C    0.928
    63   1 N    0.988 --     8 C    0.941
    64   1 N    0.926 --    10 N    0.880
    65   1 N    0.987 --    11 C    0.951
    66   1 N    0.986 --    11 C    0.949
    67   1 N    0.994 --    13 C    0.959
    68   1 N    0.995 --    13 C    0.962
    69   1 N    0.984 --    14 C    0.929
    70   1 N    0.903 --    17 N    0.809
    71   1 N    0.990 --    18 C    0.954
    72   1 N    0.988 --    18 C    0.959
    73   1 N    0.981 --    23 C    0.933
    74   1 N    0.921 --    27 N    0.861
    75   1 N    0.992 --    28 C    0.953
    76   1 N    0.982 --    28 C    0.937
    77   1 N    0.990 --    30 C    0.945
    78   1 N    0.993 --    30 C    0.962
    79   1 N    0.990 --    31 C    0.934
    80   1 N    0.987 --    33 C    0.954
    81   1 N    0.996 --    33 C    0.965
    82   1 N    0.930 --    34 N    0.883
    83   1 N    0.984 --    35 C    0.946
    84   1 N    0.983 --    35 C    0.946
    85   1 N    0.982 --    36 C    0.958
    86   1 N    0.995 --    36 C    0.960
    87   1 N    0.991 --    38 C    0.947
    88   1 N    0.990 --    38 C    0.957
    89   1 N    0.948 --    39 N    0.933
    90   1 N    0.955 --    39 N    0.934
    91   1 N    0.980 --    40 C    0.927
    92   1 N    0.936 --    43 N    0.895
    93   1 N    0.984 --    44 C    0.926
    94   1 N    0.982 --    45 C    0.960
    95   1 N    0.991 --    45 C    0.957
    96   1 N    0.992 --    45 C    0.963
    97   1 N    0.988 --    47 C    0.971
    98   1 N    0.992 --    47 C    0.973
    99   1 N    0.993 --    47 C    0.972
   100   1 N    0.991 --    48 C    0.963
   101   1 N    0.989 --    48 C    0.958
   102   1 N    0.995 --    50 C    0.976
   103   1 N    0.990 --    50 C    0.975
   104   1 N    0.986 --    50 C    0.960
   105   1 N    0.984 --    51 C    0.955
   106   1 N    0.991 --    51 C    0.957
   107   1 N    0.990 --    52 C    0.951
   108   1 N    0.988 --    52 C    0.957
   109   1 N    0.991 --    53 C    0.956
   110   1 N    0.989 --    53 C    0.954
   111   1 N    0.932 --    54 N    0.897
   112   1 N    0.955 --    56 N    0.917
   113   1 N    0.940 --    57 N    0.912
   114   1 N    0.933 --    57 N    0.908
   115   1 N    0.979 --    58 C    0.956
   116   1 N    0.994 --    58 C    0.969
   117   1 N    0.989 --    58 C    0.961
 ---------------------------------------------------------------------------

Topologies differ in total number of bonds
Writing topology from bond orders to xtbtopo.mol

Atomic dipole moments (in atomic units):
---------------------------------------------------------
     #    Z                 x            y            z
---------------------------------------------------------
           total     1.942861    14.967182     0.914812
---------------------------------------------------------
         |total|    15.120454    38.432361 Debye


           -------------------------------------------------
          | TOTAL ENERGY            -3197.370006381754 Eh   |
          | GRADIENT NORM               0.386462067528 Eh/α |
           -------------------------------------------------

------------------------------------------------------------------------
 * finished run on 2026/05/23 at 12:33:40.347     
------------------------------------------------------------------------
 total:
 * wall-time:     0 d,  0 h,  0 min, 46.704 sec
 *  cpu-time:     0 d,  0 h,  1 min, 32.497 sec
 * ratio c/w:     1.980 speedup
 SCF:
 * wall-time:     0 d,  0 h,  0 min, 45.940 sec
 *  cpu-time:     0 d,  0 h,  1 min, 31.953 sec
 * ratio c/w:     2.002 speedup

normal termination of xtb
