      -----------------------------------------------------------      
     |                   =====================                   |     
     |                           x T B                           |     
     |                   =====================                   |     
     |                         S. Grimme                         |     
     |          Mulliken Center for Theoretical Chemistry        |     
     |                    University of Bonn                     |     
      -----------------------------------------------------------      

   * xtb version 6.7.1 (26dd68d) compiled by 'froitzheim@fs7' on 2026-05-14

   xtb is free software: you can redistribute it and/or modify it under
   the terms of the GNU Lesser General Public License as published by
   the Free Software Foundation, either version 3 of the License, or
   (at your option) any later version.
   
   xtb is distributed in the hope that it will be useful,
   but WITHOUT ANY WARRANTY; without even the implied warranty of
   MERCHANTABILITY or FITNESS FOR A PARTICULAR PURPOSE.  See the
   GNU Lesser General Public License for more details.
   
   Cite this work as:
   * C. Bannwarth, E. Caldeweyher, S. Ehlert, A. Hansen, P. Pracht,
     J. Seibert, S. Spicher, S. Grimme, WIREs Comput. Mol. Sci., 2020, 11,
     e01493. DOI: 10.1002/wcms.1493
   
   for g-xTB:
   * T. Froitzheim, M. Müller, A. Hansen, S. Grimme, ChemRxiv, 2025, preprint.
     DOI: 10.26434/chemrxiv-2025-bjxv
   for GFN2-xTB:
   * C. Bannwarth, S. Ehlert and S. Grimme., J. Chem. Theory Comput., 2019,
     15, 1652-1671. DOI: 10.1021/acs.jctc.8b01176
   for GFN1-xTB:
   * S. Grimme, C. Bannwarth, P. Shushkov, J. Chem. Theory Comput., 2017,
     13, 1989-2009. DOI: 10.1021/acs.jctc.7b00118
   for GFN0-xTB:
   * P. Pracht, E. Caldeweyher, S. Ehlert, S. Grimme, ChemRxiv, 2019, preprint.
     DOI: 10.26434/chemrxiv.8326202.v1
   for GFN-FF:
   * S. Spicher and S. Grimme, Angew. Chem. Int. Ed., 2020, 59, 15665-15673.
     DOI: 10.1002/anie.202004239
   
   for ALPB and GBSA implicit solvation:
   * S. Ehlert, M. Stahn, S. Spicher, S. Grimme, J. Chem. Theory Comput.,
     2021, 17, 4250-4261. DOI: 10.1021/acs.jctc.1c00471
   
   for ddCOSMO and CPCM-X implicit solvation:
   * M. Stahn, S. Ehlert, S. Grimme, J. Phys. Chem. A,
     2023, XX, XXXX-XXXX. DOI: 10.1021/acs.jpca.3c04382
   
   for DFT-D4:
   * E. Caldeweyher, C. Bannwarth and S. Grimme, J. Chem. Phys., 2017,
     147, 034112. DOI: 10.1063/1.4993215
   * E. Caldeweyher, S. Ehlert, A. Hansen, H. Neugebauer, S. Spicher,
     C. Bannwarth and S. Grimme, J. Chem. Phys., 2019, 150, 154122.
     DOI: 10.1063/1.5090222
   * E. Caldeweyher, J.-M. Mewes, S. Ehlert and S. Grimme, Phys. Chem. Chem. Phys.
     2020, 22, 8499-8512. DOI: 10.1039/D0CP00502A
   
   for sTDA-xTB:
   * S. Grimme and C. Bannwarth, J. Chem. Phys., 2016, 145, 054103.
     DOI: 10.1063/1.4959605
   
   in the mass-spec context:
   * V. Asgeirsson, C. Bauer and S. Grimme, Chem. Sci., 2017, 8, 4879.
     DOI: 10.1039/c7sc00601b
   * J. Koopman and S. Grimme, ACS Omega 2019, 4, 12, 15120-15133.
     DOI: 10.1021/acsomega.9b02011
   
   for metadynamics refer to:
   * S. Grimme, J. Chem. Theory Comput., 2019, 155, 2847-2862
     DOI: 10.1021/acs.jctc.9b00143
   
   for SPH calculations refer to:
   * S. Spicher and S. Grimme, J. Chem. Theory Comput., 2021, 17, 1701-1714
     DOI: 10.1021/acs.jctc.0c01306
   
   for ONIOM refer to:
   * C. Plett, A. Katbashev, S. Ehlert, S. Grimme, M. Bursch,
     Phys. Chem. Chem. Phys., 2023, 25, 17860-17868. DOI: 10.1039/D3CP02178E
   
   for DIPRO refer to:
   * J. Kohn, N. Gildemeister, S. Grimme, D. Fazzi, A. Hansen,
     J. Chem. Phys. 159, 144106 (2023). DOI: 10.1063/5.0167484
   
   for PTB refer to:
   * S. Grimme, M. Mueller, A. Hansen, J. Chem. Phys., 2023, 158, 124111.
     DOI: 10.1063/5.0137838
   
   with help from (in alphabetical order)
   P. Atkinson, C. Bannwarth, F. Bohle, G. Brandenburg, E. Caldeweyher,
   M. Checinski, S. Dohm, S. Ehlert, S. Ehrlich, M. Friede, T. Froitzheim,
   I. Gerasimov, C. Hölzer, A. Katbashev, J. Kohn, J. Koopman, C. Lavigne,
   S. Lehtola, F. März, M. Müller, F. Musil, H. Neugebauer, J. Pisarek,
   C. Plett, P. Pracht, F. Pultar, J. Seibert, P. Shushkov, S. Spicher,
   M. Stahn, M. Steiner, T. Strunk, J. Stückrath, T. Rose, and J. Unsleber
   
 * started run on 2026/05/23 at 13:02:30.650     
   ID    Z sym.   atoms
    1    7 N      1, 5, 10, 17, 27, 34, 39, 43, 54, 56, 57
    2    6 C      2, 3, 6-8, 11-14, 16, 18, 21-23, 28-31, 33, 35-38, 40,
                  44-48, 50-53, 55, 58
    3    8 O      4, 9, 15, 19, 20, 24-26, 32, 41, 49
    4   16 S      42
    5    1 H      59-117

           -------------------------------------------------
          |                Calculation Setup                |
           -------------------------------------------------

          program call               : /home/xchen/software/xtb-6.7.1-gxtb/bin/xtb /home/xchen/Test/benchmark/md_sampled/04_7_0231_n2/snap_0199.xyz --charge -2 --gxtb --norestart
          coordinate file            : /home/xchen/Test/benchmark/md_sampled/04_7_0231_n2/snap_0199.xyz
          omp threads                :                    48

core increment energy         -2.9312527735450E+03 Eh
dispersion energy              2.4195427928515E-02 Eh
molecular charge              -2.0000000000000E+00 e
number of electrons            3.2799999999710E+02 e
number of unpaired electrons   0.0000000000000E+00 e
wavefunction                   restricted
integral cutoff                2.6907767250513E+01 bohr
energy convergence             1.0000000000000E-06 Eh
density convergence            2.0000000000000E-05 e

------------------------------------------------------------
  cycle        total energy    energy error   density error
------------------------------------------------------------
      1     -3195.828931877  -2.6460035E+02   0.0000000E+00
      2     -3196.348801453  -5.1986958E-01   2.1277355E-02
      3     -3196.673586913  -3.2478546E-01   1.6550955E-02
      4     -3197.342952392  -6.6936548E-01   1.2966104E-02
      5     -3197.354436996  -1.1484604E-02   1.0007399E-03
      6     -3197.355290272  -8.5327541E-04   1.6298876E-04
      7     -3197.355361010  -7.0738539E-05   6.0533735E-05
      8     -3197.355367195  -6.1842657E-06   1.4708522E-05
      9     -3197.355368042  -8.4785239E-07   3.1297886E-06
------------------------------------------------------------

electronic energy             -2.6612678992536E+02 Eh
total energy                  -3.1973553680424E+03 Eh

Post processing:
 | Mayer-Wiberg bond orders
 | Molecular Multipole Moments

 total:                                   2.443 sec
 - increment                              0.000 sec (  0%)
 - repulsion                              0.002 sec (  0%)
 - dispersion                             0.113 sec (  4%)
 - coulomb                                0.025 sec (  1%)
 - exchange                               0.001 sec (  0%)
 - hamiltonian                            0.313 sec ( 12%)
 - acp                                    0.075 sec (  3%)
 - spin polarization                      0.000 sec (  0%)
 - post processing                        0.049 sec (  2%)
 - scc                                    1.608 sec ( 65%)
 - coulomb gradient                       0.031 sec (  1%)
 - dispersion gradient                    0.012 sec (  0%)
 - exchange gradient                      0.033 sec (  1%)
 - repulsion gradient                     0.002 sec (  0%)
 - acp gradient                           0.087 sec (  3%)
 - hamiltonian gradient                   0.131 sec (  5%)
 - gradient                               0.296 sec ( 12%)

         :::::::::::::::::::::::::::::::::::::::::::::::::::::
         ::                     SUMMARY                     ::
         :::::::::::::::::::::::::::::::::::::::::::::::::::::
         :: total energy           -3197.355368042432 Eh    ::
         :: gradient norm              0.430989594775 Eh/a0 ::
         :: HOMO-LUMO gap              6.442148255256 eV    ::
         ::.................................................::
         :: add. restraining           0.000000000000 Eh    ::
         :: total charge              -2.000000000000 e     ::
         :::::::::::::::::::::::::::::::::::::::::::::::::::::

           -------------------------------------------------
          |                Property Printout                |
           -------------------------------------------------

    * Orbital Energies and Occupations
------------------------------------------------------------------
      #    Occupation            Energy/Eh            Energy/eV
------------------------------------------------------------------
      1        2.0000           -1.2113445             -32.9624
    ...           ...                  ...                  ...
    152        2.0000           -0.2226322              -6.0581
    153        2.0000           -0.2149179              -5.8482
    154        2.0000           -0.2143478              -5.8327
    155        2.0000           -0.2100433              -5.7156
    156        2.0000           -0.2039078              -5.5486
    157        2.0000           -0.1886694              -5.1340
    158        2.0000           -0.1879002              -5.1130
    159        2.0000           -0.1827401              -4.9726
    160        2.0000           -0.1622677              -4.4155
    161        2.0000           -0.1609912              -4.3808
    162        2.0000           -0.1332379              -3.6256
    163        2.0000           -0.1163154              -3.1651
    164        2.0000           -0.1124339              -3.0595 (HOMO)
    165                          0.1243107               3.3827 (LUMO)
    166                          0.1417718               3.8578
    167                          0.1441234               3.9218
    168                          0.1496642               4.0726
    169                          0.1599774               4.3532
    170                          0.1683527               4.5811
    171                          0.1761278               4.7927
    172                          0.1806478               4.9157
    173                          0.1870965               5.0912
    174                          0.1962502               5.3402
    175                          0.2367041               6.4410
    ...                                ...                  ...
    296                          0.8992010              24.4685
------------------------------------------------------------------
               HL-Gap            0.2367446 Eh            6.4421 eV
------------------------------------------------------------------

Atomic charges and shell populations (in atomic units):
-----------------------------------------------------------------
     #    Z                q          p(s)       p(p)       p(d)
-----------------------------------------------------------------
     1    7 N      -0.336218      1.364820   3.971399
     2    6 C       0.009615      1.103596   2.886789
     3    6 C       0.427060      1.100762   2.472178
     4    8 O      -0.564707      1.855412   4.709295
     5    7 N      -0.307799      1.362446   3.945353
     6    6 C       0.018052      1.134906   2.847041
     7    6 C       0.424959      1.093413   2.481628
     8    6 C      -0.004708      1.132537   2.872171
     9    8 O      -0.537153      1.852142   4.685010
    10    7 N      -0.333998      1.396850   3.937148
    11    6 C      -0.196888      1.135076   3.061811
    12    6 C       0.428420      1.092080   2.479500
    13    6 C      -0.252859      1.186115   3.066743
    14    6 C       0.008953      1.164841   2.826206
    15    8 O      -0.580765      1.851643   4.729123
    16    6 C       0.521913      1.081573   2.396513
    17    7 N      -0.379964      1.432402   3.947562
    18    6 C      -0.193973      1.192621   3.001352
    19    8 O      -0.685234      1.856689   4.828545
    20    8 O      -0.697787      1.858817   4.838970
    21    6 C       0.401005      1.103915   2.495081
    22    6 C       0.517467      1.069344   2.413190
    23    6 C       0.010817      1.125138   2.864045
    24    8 O      -0.624063      1.853637   4.770426
    25    8 O      -0.613744      1.851848   4.761896
    26    8 O      -0.703725      1.846484   4.857241
    27    7 N      -0.307567      1.355194   3.952373
    28    6 C      -0.166410      1.166566   2.999844
    29    6 C       0.395094      1.108154   2.496751
    30    6 C      -0.189052      1.157187   3.031865
    31    6 C       0.032664      1.126771   2.840565
    32    8 O      -0.556515      1.861436   4.695079
    33    6 C      -0.232195      1.176916   3.055279
    34    7 N      -0.349269      1.384429   3.964840
    35    6 C      -0.163345      1.133420   3.029925
    36    6 C      -0.104775      1.140673   2.964102
    37    6 C       0.423667      1.119801   2.456532
    38    6 C      -0.132287      1.166366   2.965921
    39    7 N      -0.506210      1.423537   4.082672
    40    6 C      -0.003993      1.139228   2.864765
    41    8 O      -0.535343      1.853670   4.681673
    42   16 S      -0.201691      1.877266   4.249414   0.075010
    43    7 N      -0.337543      1.373928   3.963615
    44    6 C      -0.114895      1.126736   2.988159
    45    6 C      -0.199364      1.186981   3.012383
    46    6 C       0.384235      1.110898   2.504867
    47    6 C      -0.242799      1.180200   3.062599
    48    6 C      -0.169720      1.141438   3.028282
    49    8 O      -0.551839      1.859534   4.692304
    50    6 C      -0.249705      1.157731   3.091974
    51    6 C      -0.213434      1.151333   3.062100
    52    6 C      -0.172926      1.158758   3.014168
    53    6 C      -0.085316      1.146116   2.939200
    54    7 N      -0.404246      1.355765   4.048481
    55    6 C       0.288651      1.079368   2.631980
    56    7 N      -0.598023      1.570709   4.027314
    57    7 N      -0.443601      1.411809   4.031792
    58    6 C      -0.321533      1.183074   3.138459
    59    1 H       0.284067      0.715933
    60    1 H       0.108582      0.891418
    61    1 H       0.297253      0.702747
    62    1 H       0.143261      0.856739
    63    1 H       0.110258      0.889742
    64    1 H       0.269784      0.730216
    65    1 H       0.147115      0.852885
    66    1 H       0.115557      0.884443
    67    1 H       0.083429      0.916571
    68    1 H       0.079307      0.920693
    69    1 H       0.127724      0.872276
    70    1 H       0.328076      0.671924
    71    1 H       0.105998      0.894002
    72    1 H       0.098840      0.901160
    73    1 H       0.145023      0.854977
    74    1 H       0.273853      0.726147
    75    1 H       0.101302      0.898698
    76    1 H       0.091780      0.908220
    77    1 H       0.098843      0.901157
    78    1 H       0.105448      0.894552
    79    1 H       0.096372      0.903628
    80    1 H       0.099532      0.900468
    81    1 H       0.073877      0.926123
    82    1 H       0.270680      0.729320
    83    1 H       0.109334      0.890666
    84    1 H       0.129667      0.870333
    85    1 H       0.090787      0.909213
    86    1 H       0.089768      0.910232
    87    1 H       0.101827      0.898173
    88    1 H       0.108245      0.891755
    89    1 H       0.249556      0.750444
    90    1 H       0.229123      0.770877
    91    1 H       0.133501      0.866499
    92    1 H       0.268047      0.731953
    93    1 H       0.122464      0.877536
    94    1 H       0.120318      0.879682
    95    1 H       0.102079      0.897921
    96    1 H       0.081102      0.918898
    97    1 H       0.064666      0.935334
    98    1 H       0.091469      0.908531
    99    1 H       0.081175      0.918825
   100    1 H       0.078797      0.921203
   101    1 H       0.125357      0.874643
   102    1 H       0.083662      0.916338
   103    1 H       0.076201      0.923799
   104    1 H       0.086345      0.913655
   105    1 H       0.138619      0.861381
   106    1 H       0.088758      0.911242
   107    1 H       0.108759      0.891241
   108    1 H       0.123942      0.876058
   109    1 H       0.114227      0.885773
   110    1 H       0.110061      0.889939
   111    1 H       0.254010      0.745990
   112    1 H       0.219404      0.780596
   113    1 H       0.244709      0.755291
   114    1 H       0.247992      0.752008
   115    1 H       0.144633      0.855367
   116    1 H       0.076806      0.923194
   117    1 H       0.123237      0.876763
-----------------------------------------------------------------


Wiberg/Mayer (AO) data.
largest (>0.10) Wiberg bond orders for each atom

 ---------------------------------------------------------------------------
     #   Z sym  total        # sym  WBO       # sym  WBO       # sym  WBO
 ---------------------------------------------------------------------------
     1   7 N    3.312 --     7 C    1.206     2 C    0.992    59 N    0.847
                             9 C    0.156
     2   6 C    3.955 --    51 C    0.998     1 N    0.992    60 N    0.933
                             3 C    0.912
     3   6 C    3.866 --     4 C    1.636     5 N    1.239     2 C    0.912
     4   8 C    1.918 --     3 C    1.636     5 N    0.160
     5   7 N    3.339 --     3 C    1.239     6 C    0.986    61 N    0.861
                             4 C    0.160
     6   6 C    3.939 --     5 N    0.986    58 C    0.977    46 C    0.940
                            62 N    0.924
     7   6 C    3.867 --     9 C    1.659     1 N    1.206     8 C    0.932
     8   6 C    3.931 --    11 C    1.016    63 N    0.934     7 C    0.932
                            10 N    0.923
     9   8 C    1.955 --     7 C    1.659     1 N    0.156
    10   7 N    3.298 --    12 C    1.230     8 C    0.923    64 N    0.879
                            15 C    0.160
    11   6 C    3.946 --     8 C    1.016    13 C    0.998    66 N    0.943
                            65 N    0.937
    12   6 C    3.866 --    15 C    1.594    10 N    1.230    14 C    0.969
    13   6 C    3.943 --    11 C    0.998    67 N    0.963    68 N    0.963
                            16 C    0.873
    14   6 C    3.919 --    12 C    0.969    17 N    0.946    18 C    0.939
                            69 N    0.936
    15   8 C    1.918 --    12 C    1.594    10 N    0.160
    16   6 C    3.862 --    19 C    1.497    20 C    1.474    13 C    0.873
    17   7 N    3.293 --    21 C    1.335    14 C    0.946    70 N    0.698
                            24 C    0.161
    18   6 C    3.944 --    72 N    0.965    71 N    0.961    14 C    0.939
                            22 C    0.928
    19   8 C    1.776 --    16 C    1.497    20 C    0.196
    20   8 C    1.750 --    16 C    1.474    19 C    0.196
    21   6 C    3.880 --    24 C    1.540    17 N    1.335    23 C    0.938
    22   6 C    3.864 --    25 C    1.590    26 C    1.322    18 C    0.928
    23   6 C    3.921 --    27 N    0.962    28 C    0.959    21 C    0.938
                            73 N    0.938
    24   8 C    1.853 --    21 C    1.540    17 N    0.161
    25   8 C    1.864 --    22 C    1.590    26 C    0.185
    26   8 C    1.804 --    22 C    1.322    25 C    0.185    70 N    0.163
    27   7 N    3.364 --    29 C    1.267    23 C    0.962    74 N    0.875
                            32 C    0.169
    28   6 C    3.960 --    30 C    1.012    23 C    0.959    75 N    0.955
                            76 N    0.951
    29   6 C    3.882 --    32 C    1.622    27 N    1.267    31 C    0.926
    30   6 C    3.962 --    28 C    1.012    33 C    0.993    77 N    0.959
                            78 N    0.957
    31   6 C    3.931 --    35 C    1.004    34 N    0.935    79 N    0.932
                            29 C    0.926
    32   8 C    1.908 --    29 C    1.622    27 N    0.169
    33   6 C    3.958 --    30 C    0.993    36 C    0.985    80 N    0.963
                            81 N    0.962
    34   7 N    3.278 --    37 C    1.212    31 C    0.935    82 N    0.884
                            41 C    0.153
    35   6 C    3.962 --    38 C    1.007    31 C    1.004    83 N    0.950
                            84 N    0.942
    36   6 C    3.960 --    39 N    1.035    33 C    0.985    85 N    0.962
                            86 N    0.959
    37   6 C    3.858 --    41 C    1.679    34 N    1.212    40 C    0.874
    38   6 C    3.946 --    35 C    1.007    42 O    0.991    88 N    0.954
                            87 N    0.953
    39   7 N    2.946 --    36 C    1.035    90 N    0.925    89 N    0.922
    40   6 C    3.921 --    44 C    0.993    43 N    0.959    91 N    0.934
                            37 C    0.874
    41   8 C    1.952 --    37 C    1.679    34 N    0.153
    42  16 O    2.098 --    45 C    0.998    38 C    0.991
    43   7 N    3.324 --    46 C    1.239    40 C    0.959    92 N    0.884
                            49 C    0.146
    44   6 C    3.972 --    47 C    0.999    40 C    0.993    48 C    0.977
                            93 N    0.943
    45   6 C    3.925 --    42 O    0.998    96 N    0.971    94 N    0.964
                            95 N    0.959
    46   6 C    3.868 --    49 C    1.620    43 N    1.239     6 C    0.940
    47   6 C    3.957 --    44 C    0.999    98 N    0.975    97 N    0.974
                            99 N    0.971
    48   6 C    3.966 --    50 C    1.042    44 C    0.977   100 N    0.958
                           101 N    0.950
    49   8 C    1.912 --    46 C    1.620    43 N    0.146
    50   6 C    3.965 --    48 C    1.042   103 N    0.971   102 N    0.969
                           104 N    0.968
    51   6 C    3.958 --     2 C    0.998    52 C    0.992   105 N    0.949
                           106 N    0.937
    52   6 C    3.957 --    53 C    1.005    51 C    0.992   107 N    0.960
                           108 N    0.957
    53   6 C    3.918 --    52 C    1.005    54 N    0.959   110 N    0.956
                           109 N    0.955
    54   7 N    3.214 --    55 C    1.139    53 C    0.959   111 N    0.883
                            56 N    0.125
    55   6 C    3.938 --    56 N    1.633    54 N    1.139    57 N    1.137
    56   7 N    2.829 --    55 C    1.633   112 N    0.918    54 N    0.125
                            57 N    0.105
    57   7 N    3.130 --    55 C    1.137   114 N    0.915   113 N    0.909
                            56 N    0.105
    58   6 C    3.937 --     6 C    0.977   116 N    0.969   115 N    0.962
                           117 N    0.960
    59   1 N    0.919 --     1 N    0.847
    60   1 N    0.988 --     2 C    0.933
    61   1 N    0.912 --     5 N    0.861
    62   1 N    0.979 --     6 C    0.924
    63   1 N    0.988 --     8 C    0.934
    64   1 N    0.927 --    10 N    0.879
    65   1 N    0.978 --    11 C    0.937
    66   1 N    0.987 --    11 C    0.943
    67   1 N    0.993 --    13 C    0.963
    68   1 N    0.994 --    13 C    0.963
    69   1 N    0.984 --    14 C    0.936
    70   1 N    0.892 --    17 N    0.698    26 C    0.163
    71   1 N    0.989 --    18 C    0.961
    72   1 N    0.990 --    18 C    0.965
    73   1 N    0.979 --    23 C    0.938
    74   1 N    0.925 --    27 N    0.875
    75   1 N    0.990 --    28 C    0.955
    76   1 N    0.992 --    28 C    0.951
    77   1 N    0.990 --    30 C    0.959
    78   1 N    0.989 --    30 C    0.957
    79   1 N    0.991 --    31 C    0.932
    80   1 N    0.990 --    33 C    0.963
    81   1 N    0.995 --    33 C    0.962
    82   1 N    0.927 --    34 N    0.884
    83   1 N    0.988 --    35 C    0.950
    84   1 N    0.983 --    35 C    0.942
    85   1 N    0.992 --    36 C    0.962
    86   1 N    0.992 --    36 C    0.959
    87   1 N    0.990 --    38 C    0.953
    88   1 N    0.988 --    38 C    0.954
    89   1 N    0.938 --    39 N    0.922
    90   1 N    0.948 --    39 N    0.925
    91   1 N    0.982 --    40 C    0.934
    92   1 N    0.928 --    43 N    0.884
    93   1 N    0.985 --    44 C    0.943
    94   1 N    0.986 --    45 C    0.964
    95   1 N    0.990 --    45 C    0.959
    96   1 N    0.993 --    45 C    0.971
    97   1 N    0.996 --    47 C    0.974
    98   1 N    0.992 --    47 C    0.975
    99   1 N    0.993 --    47 C    0.971
   100   1 N    0.994 --    48 C    0.958
   101   1 N    0.984 --    48 C    0.950
   102   1 N    0.993 --    50 C    0.969
   103   1 N    0.994 --    50 C    0.971
   104   1 N    0.993 --    50 C    0.968
   105   1 N    0.981 --    51 C    0.949
   106   1 N    0.992 --    51 C    0.937
   107   1 N    0.988 --    52 C    0.960
   108   1 N    0.985 --    52 C    0.957
   109   1 N    0.987 --    53 C    0.955
   110   1 N    0.988 --    53 C    0.956
   111   1 N    0.935 --    54 N    0.883
   112   1 N    0.952 --    56 N    0.918
   113   1 N    0.940 --    57 N    0.909
   114   1 N    0.939 --    57 N    0.915
   115   1 N    0.979 --    58 C    0.962
   116   1 N    0.994 --    58 C    0.969
   117   1 N    0.985 --    58 C    0.960
 ---------------------------------------------------------------------------

Topologies differ in total number of bonds
Writing topology from bond orders to xtbtopo.mol

Atomic dipole moments (in atomic units):
---------------------------------------------------------
     #    Z                 x            y            z
---------------------------------------------------------
           total     1.816447    13.519798     0.252007
---------------------------------------------------------
         |total|    13.643603    34.678581 Debye


           -------------------------------------------------
          | TOTAL ENERGY            -3197.355368042432 Eh   |
          | GRADIENT NORM               0.430989594775 Eh/α |
           -------------------------------------------------

------------------------------------------------------------------------
 * finished run on 2026/05/23 at 13:02:33.331     
------------------------------------------------------------------------
 total:
 * wall-time:     0 d,  0 h,  0 min,  2.680 sec
 *  cpu-time:     0 d,  0 h,  0 min, 40.358 sec
 * ratio c/w:    15.057 speedup
 SCF:
 * wall-time:     0 d,  0 h,  0 min,  2.560 sec
 *  cpu-time:     0 d,  0 h,  0 min, 39.559 sec
 * ratio c/w:    15.451 speedup

normal termination of xtb
