      -----------------------------------------------------------      
     |                   =====================                   |     
     |                           x T B                           |     
     |                   =====================                   |     
     |                         S. Grimme                         |     
     |          Mulliken Center for Theoretical Chemistry        |     
     |                    University of Bonn                     |     
      -----------------------------------------------------------      

   * xtb version 6.7.1 (26dd68d) compiled by 'froitzheim@fs7' on 2026-05-14

   xtb is free software: you can redistribute it and/or modify it under
   the terms of the GNU Lesser General Public License as published by
   the Free Software Foundation, either version 3 of the License, or
   (at your option) any later version.
   
   xtb is distributed in the hope that it will be useful,
   but WITHOUT ANY WARRANTY; without even the implied warranty of
   MERCHANTABILITY or FITNESS FOR A PARTICULAR PURPOSE.  See the
   GNU Lesser General Public License for more details.
   
   Cite this work as:
   * C. Bannwarth, E. Caldeweyher, S. Ehlert, A. Hansen, P. Pracht,
     J. Seibert, S. Spicher, S. Grimme, WIREs Comput. Mol. Sci., 2020, 11,
     e01493. DOI: 10.1002/wcms.1493
   
   for g-xTB:
   * T. Froitzheim, M. Müller, A. Hansen, S. Grimme, ChemRxiv, 2025, preprint.
     DOI: 10.26434/chemrxiv-2025-bjxv
   for GFN2-xTB:
   * C. Bannwarth, S. Ehlert and S. Grimme., J. Chem. Theory Comput., 2019,
     15, 1652-1671. DOI: 10.1021/acs.jctc.8b01176
   for GFN1-xTB:
   * S. Grimme, C. Bannwarth, P. Shushkov, J. Chem. Theory Comput., 2017,
     13, 1989-2009. DOI: 10.1021/acs.jctc.7b00118
   for GFN0-xTB:
   * P. Pracht, E. Caldeweyher, S. Ehlert, S. Grimme, ChemRxiv, 2019, preprint.
     DOI: 10.26434/chemrxiv.8326202.v1
   for GFN-FF:
   * S. Spicher and S. Grimme, Angew. Chem. Int. Ed., 2020, 59, 15665-15673.
     DOI: 10.1002/anie.202004239
   
   for ALPB and GBSA implicit solvation:
   * S. Ehlert, M. Stahn, S. Spicher, S. Grimme, J. Chem. Theory Comput.,
     2021, 17, 4250-4261. DOI: 10.1021/acs.jctc.1c00471
   
   for ddCOSMO and CPCM-X implicit solvation:
   * M. Stahn, S. Ehlert, S. Grimme, J. Phys. Chem. A,
     2023, XX, XXXX-XXXX. DOI: 10.1021/acs.jpca.3c04382
   
   for DFT-D4:
   * E. Caldeweyher, C. Bannwarth and S. Grimme, J. Chem. Phys., 2017,
     147, 034112. DOI: 10.1063/1.4993215
   * E. Caldeweyher, S. Ehlert, A. Hansen, H. Neugebauer, S. Spicher,
     C. Bannwarth and S. Grimme, J. Chem. Phys., 2019, 150, 154122.
     DOI: 10.1063/1.5090222
   * E. Caldeweyher, J.-M. Mewes, S. Ehlert and S. Grimme, Phys. Chem. Chem. Phys.
     2020, 22, 8499-8512. DOI: 10.1039/D0CP00502A
   
   for sTDA-xTB:
   * S. Grimme and C. Bannwarth, J. Chem. Phys., 2016, 145, 054103.
     DOI: 10.1063/1.4959605
   
   in the mass-spec context:
   * V. Asgeirsson, C. Bauer and S. Grimme, Chem. Sci., 2017, 8, 4879.
     DOI: 10.1039/c7sc00601b
   * J. Koopman and S. Grimme, ACS Omega 2019, 4, 12, 15120-15133.
     DOI: 10.1021/acsomega.9b02011
   
   for metadynamics refer to:
   * S. Grimme, J. Chem. Theory Comput., 2019, 155, 2847-2862
     DOI: 10.1021/acs.jctc.9b00143
   
   for SPH calculations refer to:
   * S. Spicher and S. Grimme, J. Chem. Theory Comput., 2021, 17, 1701-1714
     DOI: 10.1021/acs.jctc.0c01306
   
   for ONIOM refer to:
   * C. Plett, A. Katbashev, S. Ehlert, S. Grimme, M. Bursch,
     Phys. Chem. Chem. Phys., 2023, 25, 17860-17868. DOI: 10.1039/D3CP02178E
   
   for DIPRO refer to:
   * J. Kohn, N. Gildemeister, S. Grimme, D. Fazzi, A. Hansen,
     J. Chem. Phys. 159, 144106 (2023). DOI: 10.1063/5.0167484
   
   for PTB refer to:
   * S. Grimme, M. Mueller, A. Hansen, J. Chem. Phys., 2023, 158, 124111.
     DOI: 10.1063/5.0137838
   
   with help from (in alphabetical order)
   P. Atkinson, C. Bannwarth, F. Bohle, G. Brandenburg, E. Caldeweyher,
   M. Checinski, S. Dohm, S. Ehlert, S. Ehrlich, M. Friede, T. Froitzheim,
   I. Gerasimov, C. Hölzer, A. Katbashev, J. Kohn, J. Koopman, C. Lavigne,
   S. Lehtola, F. März, M. Müller, F. Musil, H. Neugebauer, J. Pisarek,
   C. Plett, P. Pracht, F. Pultar, J. Seibert, P. Shushkov, S. Spicher,
   M. Stahn, M. Steiner, T. Strunk, J. Stückrath, T. Rose, and J. Unsleber
   
 * started run on 2026/05/23 at 13:01:40.496     
   ID    Z sym.   atoms
    1    7 N      1, 5, 10, 17, 27, 34, 39, 43, 54, 56, 57
    2    6 C      2, 3, 6-8, 11-14, 16, 18, 21-23, 28-31, 33, 35-38, 40,
                  44-48, 50-53, 55, 58
    3    8 O      4, 9, 15, 19, 20, 24-26, 32, 41, 49
    4   16 S      42
    5    1 H      59-117

           -------------------------------------------------
          |                Calculation Setup                |
           -------------------------------------------------

          program call               : /home/xchen/software/xtb-6.7.1-gxtb/bin/xtb /home/xchen/Test/benchmark/md_sampled/04_7_0231_n2/snap_0178.xyz --charge -2 --gxtb --norestart
          coordinate file            : /home/xchen/Test/benchmark/md_sampled/04_7_0231_n2/snap_0178.xyz
          omp threads                :                    48

core increment energy         -2.9312527735450E+03 Eh
dispersion energy              2.2099210126525E-02 Eh
molecular charge              -2.0000000000000E+00 e
number of electrons            3.2799999999710E+02 e
number of unpaired electrons   0.0000000000000E+00 e
wavefunction                   restricted
integral cutoff                2.6907767250513E+01 bohr
energy convergence             1.0000000000000E-06 Eh
density convergence            2.0000000000000E-05 e

------------------------------------------------------------
  cycle        total energy    energy error   density error
------------------------------------------------------------
      1     -3195.866471777  -2.6463580E+02   0.0000000E+00
      2     -3196.365845136  -4.9937336E-01   2.0835470E-02
      3     -3196.683780581  -3.1793544E-01   1.6330940E-02
      4     -3197.351370623  -6.6759004E-01   1.2861824E-02
      5     -3197.361653719  -1.0283096E-02   8.8192626E-04
      6     -3197.362496464  -8.4274488E-04   1.7290269E-04
      7     -3197.362564273  -6.7808641E-05   5.1945743E-05
      8     -3197.362569201  -4.9287643E-06   1.4822169E-05
      9     -3197.362569802  -6.0050360E-07   2.3383230E-06
------------------------------------------------------------

electronic energy             -2.6613189546698E+02 Eh
total energy                  -3.1973625698019E+03 Eh

Post processing:
 | Mayer-Wiberg bond orders
 | Molecular Multipole Moments

 total:                                   5.868 sec
 - increment                              0.000 sec (  0%)
 - repulsion                              0.002 sec (  0%)
 - dispersion                             0.120 sec (  2%)
 - coulomb                                0.062 sec (  1%)
 - exchange                               0.001 sec (  0%)
 - hamiltonian                            2.690 sec ( 45%)
 - acp                                    0.095 sec (  1%)
 - post processing                        0.040 sec (  0%)
 - scc                                    2.444 sec ( 41%)
 - coulomb gradient                       0.042 sec (  0%)
 - dispersion gradient                    0.012 sec (  0%)
 - exchange gradient                      0.045 sec (  0%)
 - repulsion gradient                     0.002 sec (  0%)
 - acp gradient                           0.120 sec (  2%)
 - hamiltonian gradient                   0.220 sec (  3%)
 - gradient                               0.441 sec (  7%)

         :::::::::::::::::::::::::::::::::::::::::::::::::::::
         ::                     SUMMARY                     ::
         :::::::::::::::::::::::::::::::::::::::::::::::::::::
         :: total energy           -3197.362569801858 Eh    ::
         :: gradient norm              0.417026052077 Eh/a0 ::
         :: HOMO-LUMO gap              6.233194946879 eV    ::
         ::.................................................::
         :: add. restraining           0.000000000000 Eh    ::
         :: total charge              -2.000000000000 e     ::
         :::::::::::::::::::::::::::::::::::::::::::::::::::::

           -------------------------------------------------
          |                Property Printout                |
           -------------------------------------------------

    * Orbital Energies and Occupations
------------------------------------------------------------------
      #    Occupation            Energy/Eh            Energy/eV
------------------------------------------------------------------
      1        2.0000           -1.2044018             -32.7734
    ...           ...                  ...                  ...
    152        2.0000           -0.2267380              -6.1699
    153        2.0000           -0.2240418              -6.0965
    154        2.0000           -0.2219472              -6.0395
    155        2.0000           -0.2206520              -6.0042
    156        2.0000           -0.1969958              -5.3605
    157        2.0000           -0.1943704              -5.2891
    158        2.0000           -0.1902248              -5.1763
    159        2.0000           -0.1872907              -5.0964
    160        2.0000           -0.1760173              -4.7897
    161        2.0000           -0.1444395              -3.9304
    162        2.0000           -0.1303042              -3.5458
    163        2.0000           -0.1149524              -3.1280
    164        2.0000           -0.1048350              -2.8527 (HOMO)
    165                          0.1242307               3.3805 (LUMO)
    166                          0.1290679               3.5121
    167                          0.1376901               3.7467
    168                          0.1423679               3.8740
    169                          0.1482217               4.0333
    170                          0.1622133               4.4140
    171                          0.1654127               4.5011
    172                          0.1856296               5.0512
    173                          0.1915525               5.2124
    174                          0.1927074               5.2438
    175                          0.2281833               6.2092
    ...                                ...                  ...
    296                          0.9587436              26.0887
------------------------------------------------------------------
               HL-Gap            0.2290657 Eh            6.2332 eV
------------------------------------------------------------------

Atomic charges and shell populations (in atomic units):
-----------------------------------------------------------------
     #    Z                q          p(s)       p(p)       p(d)
-----------------------------------------------------------------
     1    7 N      -0.328076      1.349513   3.978563
     2    6 C       0.010044      1.129696   2.860260
     3    6 C       0.435478      1.127251   2.437271
     4    8 O      -0.541593      1.859765   4.681828
     5    7 N      -0.322860      1.406809   3.916052
     6    6 C      -0.022935      1.110854   2.912080
     7    6 C       0.404352      1.118606   2.477042
     8    6 C      -0.015821      1.133874   2.881947
     9    8 O      -0.561205      1.855201   4.706004
    10    7 N      -0.355076      1.356079   3.998997
    11    6 C      -0.165011      1.165955   2.999056
    12    6 C       0.428982      1.124775   2.446244
    13    6 C      -0.187796      1.156577   3.031219
    14    6 C       0.012286      1.130997   2.856717
    15    8 O      -0.548766      1.850903   4.697863
    16    6 C       0.503548      1.070063   2.426389
    17    7 N      -0.341998      1.370656   3.971342
    18    6 C      -0.223181      1.197843   3.025338
    19    8 O      -0.705455      1.859752   4.845702
    20    8 O      -0.702746      1.858341   4.844405
    21    6 C       0.416829      1.089801   2.493370
    22    6 C       0.536740      1.067698   2.395562
    23    6 C      -0.009598      1.130191   2.879407
    24    8 O      -0.606021      1.845668   4.760354
    25    8 O      -0.634469      1.850513   4.783956
    26    8 O      -0.668710      1.839837   4.828873
    27    7 N      -0.346939      1.359171   3.987767
    28    6 C      -0.178790      1.145257   3.033533
    29    6 C       0.424983      1.096698   2.478319
    30    6 C      -0.199743      1.150039   3.049704
    31    6 C      -0.006260      1.144256   2.862004
    32    8 O      -0.529267      1.848767   4.680500
    33    6 C      -0.206188      1.160040   3.046148
    34    7 N      -0.334380      1.384245   3.950135
    35    6 C      -0.184421      1.167302   3.017119
    36    6 C      -0.080477      1.142119   2.938358
    37    6 C       0.412985      1.116451   2.470564
    38    6 C      -0.129114      1.189852   2.939262
    39    7 N      -0.517906      1.452513   4.065393
    40    6 C      -0.000773      1.137535   2.863238
    41    8 O      -0.547427      1.856047   4.691380
    42   16 S      -0.217997      1.873079   4.259366   0.085551
    43    7 N      -0.363578      1.358415   4.005163
    44    6 C      -0.104383      1.148396   2.955987
    45    6 C      -0.210996      1.180996   3.030001
    46    6 C       0.402998      1.110711   2.486291
    47    6 C      -0.238512      1.166291   3.072221
    48    6 C      -0.214588      1.162940   3.051649
    49    8 O      -0.512598      1.858030   4.654567
    50    6 C      -0.273314      1.174195   3.099119
    51    6 C      -0.182591      1.173166   3.009425
    52    6 C      -0.188670      1.151660   3.037010
    53    6 C      -0.075103      1.120177   2.954927
    54    7 N      -0.351591      1.336251   4.015340
    55    6 C       0.283247      1.080405   2.636348
    56    7 N      -0.601699      1.598052   4.003647
    57    7 N      -0.463933      1.381826   4.082107
    58    6 C      -0.237509      1.181118   3.056391
    59    1 H       0.288355      0.711645
    60    1 H       0.122406      0.877594
    61    1 H       0.282312      0.717688
    62    1 H       0.155648      0.844352
    63    1 H       0.116928      0.883072
    64    1 H       0.270382      0.729618
    65    1 H       0.085960      0.914040
    66    1 H       0.108381      0.891619
    67    1 H       0.112696      0.887304
    68    1 H       0.065922      0.934078
    69    1 H       0.118151      0.881849
    70    1 H       0.328832      0.671168
    71    1 H       0.085007      0.914993
    72    1 H       0.107353      0.892647
    73    1 H       0.133086      0.866914
    74    1 H       0.271025      0.728975
    75    1 H       0.097971      0.902029
    76    1 H       0.106633      0.893367
    77    1 H       0.099483      0.900517
    78    1 H       0.093717      0.906283
    79    1 H       0.119406      0.880594
    80    1 H       0.099056      0.900944
    81    1 H       0.092059      0.907941
    82    1 H       0.252577      0.747423
    83    1 H       0.143720      0.856280
    84    1 H       0.135260      0.864740
    85    1 H       0.066242      0.933758
    86    1 H       0.074770      0.925230
    87    1 H       0.093958      0.906042
    88    1 H       0.109776      0.890224
    89    1 H       0.264121      0.735879
    90    1 H       0.216169      0.783831
    91    1 H       0.114821      0.885179
    92    1 H       0.254198      0.745802
    93    1 H       0.110848      0.889152
    94    1 H       0.105308      0.894692
    95    1 H       0.119361      0.880639
    96    1 H       0.094609      0.905391
    97    1 H       0.089557      0.910443
    98    1 H       0.087155      0.912845
    99    1 H       0.081618      0.918382
   100    1 H       0.098730      0.901270
   101    1 H       0.116022      0.883978
   102    1 H       0.089303      0.910697
   103    1 H       0.100784      0.899216
   104    1 H       0.110927      0.889073
   105    1 H       0.118072      0.881928
   106    1 H       0.103617      0.896383
   107    1 H       0.107723      0.892277
   108    1 H       0.101964      0.898036
   109    1 H       0.099611      0.900389
   110    1 H       0.083050      0.916950
   111    1 H       0.265681      0.734319
   112    1 H       0.210626      0.789374
   113    1 H       0.249293      0.750707
   114    1 H       0.248526      0.751474
   115    1 H       0.148283      0.851717
   116    1 H       0.064651      0.935349
   117    1 H       0.075895      0.924105
-----------------------------------------------------------------


Wiberg/Mayer (AO) data.
largest (>0.10) Wiberg bond orders for each atom

 ---------------------------------------------------------------------------
     #   Z sym  total        # sym  WBO       # sym  WBO       # sym  WBO
 ---------------------------------------------------------------------------
     1   7 N    3.359 --     7 C    1.258     2 C    0.995    59 N    0.848
                             9 C    0.155
     2   6 C    3.939 --     1 N    0.995    51 C    0.967    60 N    0.947
                             3 C    0.894
     3   6 C    3.839 --     4 C    1.675     5 N    1.190     2 C    0.894
     4   8 C    1.956 --     3 C    1.675     5 N    0.142
     5   7 N    3.277 --     3 C    1.190     6 C    0.976    61 N    0.872
                             4 C    0.142
     6   6 C    3.944 --    58 C    0.999     5 N    0.976    46 C    0.956
                            62 N    0.898
     7   6 C    3.847 --     9 C    1.623     1 N    1.258     8 C    0.880
     8   6 C    3.927 --    10 N    0.998    11 C    0.977    63 N    0.938
                             7 C    0.880
     9   8 C    1.925 --     7 C    1.623     1 N    0.155
    10   7 N    3.309 --    12 C    1.157     8 C    0.998    64 N    0.893
                            15 C    0.158
    11   6 C    3.949 --    13 C    1.007     8 C    0.977    66 N    0.953
                            65 N    0.950
    12   6 C    3.836 --    15 C    1.652    10 N    1.157    14 C    0.926
    13   6 C    3.960 --    11 C    1.007    68 N    0.957    67 N    0.954
                            16 C    0.934
    14   6 C    3.923 --    18 C    0.970    17 N    0.965    69 N    0.931
                            12 C    0.926
    15   8 C    1.971 --    12 C    1.652    10 N    0.158
    16   6 C    3.874 --    20 C    1.469    19 C    1.451    13 C    0.934
    17   7 N    3.365 --    21 C    1.338    14 C    0.965    70 N    0.763
                            24 C    0.172
    18   6 C    3.927 --    14 C    0.970    72 N    0.963    71 N    0.960
                            22 C    0.853
    19   8 C    1.737 --    16 C    1.451    20 C    0.199
    20   8 C    1.741 --    16 C    1.469    19 C    0.199
    21   6 C    3.883 --    24 C    1.568    17 N    1.338    23 C    0.912
    22   6 C    3.859 --    25 C    1.551    26 C    1.433    18 C    0.853
    23   6 C    3.925 --    28 C    0.974    27 N    0.961    73 N    0.942
                            21 C    0.912
    24   8 C    1.889 --    21 C    1.568    17 N    0.172
    25   8 C    1.837 --    22 C    1.551    26 C    0.192
    26   8 C    1.850 --    22 C    1.433    25 C    0.192
    27   7 N    3.324 --    29 C    1.216    23 C    0.961    74 N    0.885
                            32 C    0.168
    28   6 C    3.966 --    30 C    1.018    23 C    0.974    75 N    0.955
                            76 N    0.949
    29   6 C    3.871 --    32 C    1.674    27 N    1.216    31 C    0.913
    30   6 C    3.965 --    28 C    1.018    33 C    0.992    78 N    0.960
                            77 N    0.953
    31   6 C    3.918 --    35 C    0.986    79 N    0.942    34 N    0.939
                            29 C    0.913
    32   8 C    1.973 --    29 C    1.674    27 N    0.168
    33   6 C    3.964 --    36 C    1.001    30 C    0.992    81 N    0.963
                            80 N    0.951
    34   7 N    3.310 --    37 C    1.223    31 C    0.939    82 N    0.889
                            41 C    0.156
    35   6 C    3.940 --    31 C    0.986    38 C    0.984    83 N    0.947
                            84 N    0.945
    36   6 C    3.963 --    39 N    1.029    33 C    1.001    85 N    0.959
                            86 N    0.956
    37   6 C    3.861 --    41 C    1.648    34 N    1.223    40 C    0.897
    38   6 C    3.934 --    42 O    0.997    35 C    0.984    87 N    0.956
                            88 N    0.954
    39   7 N    2.938 --    36 C    1.029    90 N    0.935    89 N    0.907
    40   6 C    3.933 --    43 N    0.999    44 C    0.961    91 N    0.929
                            37 C    0.897
    41   8 C    1.934 --    37 C    1.648    34 N    0.156
    42  16 O    2.124 --    45 C    1.011    38 C    0.997
    43   7 N    3.302 --    46 C    1.151    40 C    0.999    92 N    0.886
                            49 C    0.156
    44   6 C    3.967 --    47 C    1.013    48 C    0.989    40 C    0.961
                            93 N    0.934
    45   6 C    3.929 --    42 O    1.011    96 N    0.969    94 N    0.964
                            95 N    0.957
    46   6 C    3.868 --    49 C    1.680    43 N    1.151     6 C    0.956
    47   6 C    3.962 --    44 C    1.013    99 N    0.974    98 N    0.971
                            97 N    0.969
    48   6 C    3.958 --    50 C    1.011    44 C    0.989   100 N    0.961
                           101 N    0.958
    49   8 C    1.959 --    46 C    1.680    43 N    0.156
    50   6 C    3.956 --    48 C    1.011   103 N    0.974   102 N    0.973
                           104 N    0.971
    51   6 C    3.950 --    52 C    0.993     2 C    0.967   105 N    0.961
                           106 N    0.959
    52   6 C    3.961 --    53 C    1.008    51 C    0.993   108 N    0.963
                           107 N    0.958
    53   6 C    3.933 --    52 C    1.008    54 N    0.982   110 N    0.950
                           109 N    0.949
    54   7 N    3.271 --    55 C    1.172    53 C    0.982   111 N    0.891
                            56 N    0.124
    55   6 C    3.939 --    56 N    1.608    54 N    1.172    57 N    1.129
    56   7 N    2.818 --    55 C    1.608   112 N    0.921    54 N    0.124
                            57 N    0.104
    57   7 N    3.129 --    55 C    1.129   114 N    0.914   113 N    0.908
                            56 N    0.104
    58   6 C    3.948 --     6 C    0.999   117 N    0.969   116 N    0.963
                           115 N    0.954
    59   1 N    0.917 --     1 N    0.848
    60   1 N    0.985 --     2 C    0.947
    61   1 N    0.920 --     5 N    0.872
    62   1 N    0.976 --     6 C    0.898
    63   1 N    0.986 --     8 C    0.938
    64   1 N    0.927 --    10 N    0.893
    65   1 N    0.993 --    11 C    0.950
    66   1 N    0.988 --    11 C    0.953
    67   1 N    0.987 --    13 C    0.954
    68   1 N    0.996 --    13 C    0.957
    69   1 N    0.986 --    14 C    0.931
    70   1 N    0.892 --    17 N    0.763
    71   1 N    0.993 --    18 C    0.960
    72   1 N    0.988 --    18 C    0.963
    73   1 N    0.982 --    23 C    0.942
    74   1 N    0.927 --    27 N    0.885
    75   1 N    0.990 --    28 C    0.955
    76   1 N    0.989 --    28 C    0.949
    77   1 N    0.990 --    30 C    0.953
    78   1 N    0.991 --    30 C    0.960
    79   1 N    0.986 --    31 C    0.942
    80   1 N    0.990 --    33 C    0.951
    81   1 N    0.992 --    33 C    0.963
    82   1 N    0.936 --    34 N    0.889
    83   1 N    0.979 --    35 C    0.947
    84   1 N    0.982 --    35 C    0.945
    85   1 N    0.996 --    36 C    0.959
    86   1 N    0.994 --    36 C    0.956
    87   1 N    0.991 --    38 C    0.956
    88   1 N    0.988 --    38 C    0.954
    89   1 N    0.930 --    39 N    0.907
    90   1 N    0.953 --    39 N    0.935
    91   1 N    0.987 --    40 C    0.929
    92   1 N    0.935 --    43 N    0.886
    93   1 N    0.988 --    44 C    0.934
    94   1 N    0.989 --    45 C    0.964
    95   1 N    0.986 --    45 C    0.957
    96   1 N    0.991 --    45 C    0.969
    97   1 N    0.992 --    47 C    0.969
    98   1 N    0.992 --    47 C    0.971
    99   1 N    0.993 --    47 C    0.974
   100   1 N    0.990 --    48 C    0.961
   101   1 N    0.987 --    48 C    0.958
   102   1 N    0.992 --    50 C    0.973
   103   1 N    0.990 --    50 C    0.974
   104   1 N    0.988 --    50 C    0.971
   105   1 N    0.986 --    51 C    0.961
   106   1 N    0.989 --    51 C    0.959
   107   1 N    0.988 --    52 C    0.958
   108   1 N    0.990 --    52 C    0.963
   109   1 N    0.990 --    53 C    0.949
   110   1 N    0.993 --    53 C    0.950
   111   1 N    0.929 --    54 N    0.891
   112   1 N    0.956 --    56 N    0.921
   113   1 N    0.938 --    57 N    0.908
   114   1 N    0.938 --    57 N    0.914
   115   1 N    0.978 --    58 C    0.954
   116   1 N    0.996 --    58 C    0.963
   117   1 N    0.994 --    58 C    0.969
 ---------------------------------------------------------------------------

Topologies differ in total number of bonds
Writing topology from bond orders to xtbtopo.mol

Atomic dipole moments (in atomic units):
---------------------------------------------------------
     #    Z                 x            y            z
---------------------------------------------------------
           total     1.256555    14.779371     1.989954
---------------------------------------------------------
         |total|    14.965582    38.038716 Debye


           -------------------------------------------------
          | TOTAL ENERGY            -3197.362569801858 Eh   |
          | GRADIENT NORM               0.417026052077 Eh/α |
           -------------------------------------------------

------------------------------------------------------------------------
 * finished run on 2026/05/23 at 13:01:46.564     
------------------------------------------------------------------------
 total:
 * wall-time:     0 d,  0 h,  0 min,  6.067 sec
 *  cpu-time:     0 d,  0 h,  1 min, 11.341 sec
 * ratio c/w:    11.759 speedup
 SCF:
 * wall-time:     0 d,  0 h,  0 min,  6.004 sec
 *  cpu-time:     0 d,  0 h,  1 min, 11.018 sec
 * ratio c/w:    11.828 speedup

normal termination of xtb
