      -----------------------------------------------------------      
     |                   =====================                   |     
     |                           x T B                           |     
     |                   =====================                   |     
     |                         S. Grimme                         |     
     |          Mulliken Center for Theoretical Chemistry        |     
     |                    University of Bonn                     |     
      -----------------------------------------------------------      

   * xtb version 6.7.1 (edcfbbe) compiled by 'albert@albert-system' on 2024-07-22

   xtb is free software: you can redistribute it and/or modify it under
   the terms of the GNU Lesser General Public License as published by
   the Free Software Foundation, either version 3 of the License, or
   (at your option) any later version.
   
   xtb is distributed in the hope that it will be useful,
   but WITHOUT ANY WARRANTY; without even the implied warranty of
   MERCHANTABILITY or FITNESS FOR A PARTICULAR PURPOSE.  See the
   GNU Lesser General Public License for more details.
   
   Cite this work as:
   * C. Bannwarth, E. Caldeweyher, S. Ehlert, A. Hansen, P. Pracht,
     J. Seibert, S. Spicher, S. Grimme, WIREs Comput. Mol. Sci., 2020, 11,
     e01493. DOI: 10.1002/wcms.1493
   
   for GFN2-xTB:
   * C. Bannwarth, S. Ehlert and S. Grimme., J. Chem. Theory Comput., 2019,
     15, 1652-1671. DOI: 10.1021/acs.jctc.8b01176
   for GFN1-xTB:
   * S. Grimme, C. Bannwarth, P. Shushkov, J. Chem. Theory Comput., 2017,
     13, 1989-2009. DOI: 10.1021/acs.jctc.7b00118
   for GFN0-xTB:
   * P. Pracht, E. Caldeweyher, S. Ehlert, S. Grimme, ChemRxiv, 2019, preprint.
     DOI: 10.26434/chemrxiv.8326202.v1
   for GFN-FF:
   * S. Spicher and S. Grimme, Angew. Chem. Int. Ed., 2020, 59, 15665-15673.
     DOI: 10.1002/anie.202004239
   
   for ALPB and GBSA implicit solvation:
   * S. Ehlert, M. Stahn, S. Spicher, S. Grimme, J. Chem. Theory Comput.,
     2021, 17, 4250-4261. DOI: 10.1021/acs.jctc.1c00471
   
   for ddCOSMO and CPCM-X implicit solvation:
   * M. Stahn, S. Ehlert, S. Grimme, J. Phys. Chem. A,
     2023, XX, XXXX-XXXX. DOI: 10.1021/acs.jpca.3c04382
   
   for DFT-D4:
   * E. Caldeweyher, C. Bannwarth and S. Grimme, J. Chem. Phys., 2017,
     147, 034112. DOI: 10.1063/1.4993215
   * E. Caldeweyher, S. Ehlert, A. Hansen, H. Neugebauer, S. Spicher,
     C. Bannwarth and S. Grimme, J. Chem. Phys., 2019, 150, 154122.
     DOI: 10.1063/1.5090222
   * E. Caldeweyher, J.-M. Mewes, S. Ehlert and S. Grimme, Phys. Chem. Chem. Phys.
     2020, 22, 8499-8512. DOI: 10.1039/D0CP00502A
   
   for sTDA-xTB:
   * S. Grimme and C. Bannwarth, J. Chem. Phys., 2016, 145, 054103.
     DOI: 10.1063/1.4959605
   
   in the mass-spec context:
   * V. Asgeirsson, C. Bauer and S. Grimme, Chem. Sci., 2017, 8, 4879.
     DOI: 10.1039/c7sc00601b
   * J. Koopman and S. Grimme, ACS Omega 2019, 4, 12, 15120-15133.
     DOI: 10.1021/acsomega.9b02011
   
   for metadynamics refer to:
   * S. Grimme, J. Chem. Theory Comput., 2019, 155, 2847-2862
     DOI: 10.1021/acs.jctc.9b00143
   
   for SPH calculations refer to:
   * S. Spicher and S. Grimme, J. Chem. Theory Comput., 2021, 17, 1701-1714
     DOI: 10.1021/acs.jctc.0c01306
   
   for ONIOM refer to:
   * C. Plett, A. Katbashev, S. Ehlert, S. Grimme, M. Bursch,
     Phys. Chem. Chem. Phys., 2023, 25, 17860-17868. DOI: 10.1039/D3CP02178E
   
   for DIPRO refer to:
   * J. Kohn, N. Gildemeister, S. Grimme, D. Fazzi, A. Hansen,
     J. Chem. Phys., 2023, just accepted.
   
   for PTB refer to:
   * S. Grimme, M. Mueller, A. Hansen, J. Chem. Phys., 2023, 158, 124111.
     DOI: 10.1063/5.0137838
   
   with help from (in alphabetical order)
   P. Atkinson, C. Bannwarth, F. Bohle, G. Brandenburg, E. Caldeweyher
   M. Checinski, S. Dohm, S. Ehlert, S. Ehrlich, I. Gerasimov, C. Hölzer
   A. Katbashev, J. Kohn, J. Koopman, C. Lavigne, S. Lehtola, F. März, M. Müller,
   F. Musil, H. Neugebauer, J. Pisarek, C. Plett, P. Pracht, F. Pultar,
   J. Seibert, P. Shushkov, S. Spicher, M. Stahn, M. Steiner, T. Strunk,
   J. Stückrath, T. Rose, and J. Unsleber
   
 * started run on 2026/05/23 at 12:40:09.084     
   ID    Z sym.   atoms
    1    7 N      1, 5, 10, 17, 22, 26, 27, 33, 41
    2    6 C      2, 3, 6-8, 11-14, 16, 18-21, 23, 28-30, 34-39
    3    8 O      4, 9, 15, 24, 25, 31, 32, 40
    4    1 H      42-82

           -------------------------------------------------
          |                Calculation Setup                |
           -------------------------------------------------

          program call               : /home/xchen/software/xtb-6.7.1/xtb-dist/bin/xtb /home/xchen/Test/benchmark/md_sampled/09_5_0584_0/snap_0133.xyz --charge 0 --gfn 2 --norestart
          coordinate file            : /home/xchen/Test/benchmark/md_sampled/09_5_0584_0/snap_0133.xyz
          omp threads                :                    48


           -------------------------------------------------
          |                 G F N 2 - x T B                 |
           -------------------------------------------------

        Reference                      10.1021/acs.jctc.8b01176
      * Hamiltonian:
        H0-scaling (s, p, d)           1.850000    2.230000    2.230000
        zeta-weighting                 0.500000
      * Dispersion:
        s8                             2.700000
        a1                             0.520000
        a2                             5.000000
        s9                             5.000000
      * Repulsion:
        kExp                           1.500000    1.000000
        rExp                           1.000000
      * Coulomb:
        alpha                          2.000000
        third order                    shell-resolved
        anisotropic                    true
        a3                             3.000000
        a5                             4.000000
        cn-shift                       1.200000
        cn-exp                         4.000000
        max-rad                        5.000000


          ...................................................
          :                      SETUP                      :
          :.................................................:
          :  # basis functions                 205          :
          :  # atomic orbitals                 205          :
          :  # shells                          123          :
          :  # electrons                       230          :
          :  max. iterations                   250          :
          :  Hamiltonian                  GFN2-xTB          :
          :  restarted?                      false          :
          :  GBSA solvation                  false          :
          :  PC potential                    false          :
          :  electronic temp.          300.0000000     K    :
          :  accuracy                    1.0000000          :
          :  -> integral cutoff          0.2500000E+02      :
          :  -> integral neglect         0.1000000E-07      :
          :  -> SCF convergence          0.1000000E-05 Eh   :
          :  -> wf. convergence          0.1000000E-03 e    :
          :  Broyden damping             0.4000000          :
          :  net charge                          0          :
          :  unpaired electrons                  0          :
          ...................................................

 iter      E             dE          RMSdq      gap      omega  full diag
   1   -132.0798732 -0.132080E+03  0.425E+00    3.97       0.0  T
   2   -132.5024178 -0.422545E+00  0.220E+00    3.39       1.0  T
   3   -132.5239409 -0.215230E-01  0.127E+00    3.58       1.0  T
   4   -132.5263058 -0.236488E-02  0.269E-01    3.09       1.0  T
   5   -132.5307309 -0.442509E-02  0.967E-02    3.15       1.0  T
   6   -132.5307954 -0.645310E-04  0.461E-02    3.14       1.0  T
   7   -132.5308083 -0.128984E-04  0.178E-02    3.14       1.0  T
   8   -132.5308161 -0.777405E-05  0.617E-03    3.15       1.8  T
   9   -132.5308164 -0.375197E-06  0.233E-03    3.15       4.7  T
  10   -132.5308165 -0.524718E-07  0.869E-04    3.15      12.7  T
  11   -132.5308165 -0.161768E-07  0.325E-04    3.15      34.0  T

   *** convergence criteria satisfied after 11 iterations ***

         #    Occupation            Energy/Eh            Energy/eV
      -------------------------------------------------------------
         1        2.0000           -0.7447657             -20.2661
       ...           ...                  ...                  ...
       109        2.0000           -0.4123097             -11.2195
       110        2.0000           -0.4105289             -11.1711
       111        2.0000           -0.4082975             -11.1103
       112        2.0000           -0.4027931             -10.9606
       113        2.0000           -0.3999047             -10.8820
       114        2.0000           -0.3952272             -10.7547
       115        2.0000           -0.3733481             -10.1593 (HOMO)
       116                         -0.2576686              -7.0115 (LUMO)
       117                         -0.2574542              -7.0057
       118                         -0.2530520              -6.8859
       119                         -0.2437482              -6.6327
       120                         -0.2396740              -6.5219
       ...                                ...                  ...
       205                          0.6762761              18.4024
      -------------------------------------------------------------
                  HL-Gap            0.1156795 Eh            3.1478 eV
             Fermi-level           -0.3155083 Eh           -8.5854 eV

 SCC (total)                   0 d,  0 h,  0 min, 12.168 sec
 SCC setup                      ...        0 min,  0.025 sec (  0.207%)
 Dispersion                     ...        0 min,  0.083 sec (  0.681%)
 classical contributions        ...        0 min,  0.009 sec (  0.072%)
 integral evaluation            ...        0 min,  0.311 sec (  2.554%)
 iterations                     ...        0 min, 11.202 sec ( 92.057%)
 molecular gradient             ...        0 min,  0.531 sec (  4.362%)
 printout                       ...        0 min,  0.008 sec (  0.066%)

         :::::::::::::::::::::::::::::::::::::::::::::::::::::
         ::                     SUMMARY                     ::
         :::::::::::::::::::::::::::::::::::::::::::::::::::::
         :: total energy            -131.077212617886 Eh    ::
         :: gradient norm              0.343541999626 Eh/a0 ::
         :: HOMO-LUMO gap              3.147800085917 eV    ::
         ::.................................................::
         :: SCC energy              -132.528395323200 Eh    ::
         :: -> isotropic ES            0.317927572740 Eh    ::
         :: -> anisotropic ES          0.014525378460 Eh    ::
         :: -> anisotropic XC          0.041886981850 Eh    ::
         :: -> dispersion             -0.090115325380 Eh    ::
         :: repulsion energy           1.451182705314 Eh    ::
         :: add. restraining           0.000000000000 Eh    ::
         :: total charge              -0.000000000000 e     ::
         :::::::::::::::::::::::::::::::::::::::::::::::::::::

           -------------------------------------------------
          |                Property Printout                |
           -------------------------------------------------

    * Orbital Energies and Occupations

         #    Occupation            Energy/Eh            Energy/eV
      -------------------------------------------------------------
         1        2.0000           -0.7447657             -20.2661
       ...           ...                  ...                  ...
       103        2.0000           -0.4308948             -11.7252
       104        2.0000           -0.4304339             -11.7127
       105        2.0000           -0.4285580             -11.6617
       106        2.0000           -0.4256976             -11.5838
       107        2.0000           -0.4230716             -11.5124
       108        2.0000           -0.4168762             -11.3438
       109        2.0000           -0.4123097             -11.2195
       110        2.0000           -0.4105289             -11.1711
       111        2.0000           -0.4082975             -11.1103
       112        2.0000           -0.4027931             -10.9606
       113        2.0000           -0.3999047             -10.8820
       114        2.0000           -0.3952272             -10.7547
       115        2.0000           -0.3733481             -10.1593 (HOMO)
       116                         -0.2576686              -7.0115 (LUMO)
       117                         -0.2574542              -7.0057
       118                         -0.2530520              -6.8859
       119                         -0.2437482              -6.6327
       120                         -0.2396740              -6.5219
       121                         -0.2370792              -6.4513
       122                         -0.2331663              -6.3448
       123                         -0.2289677              -6.2305
       124                         -0.0739379              -2.0120
       125                         -0.0656282              -1.7858
       126                         -0.0553132              -1.5051
       ...                                ...                  ...
       205                          0.6762761              18.4024
      -------------------------------------------------------------
                  HL-Gap            0.1156795 Eh            3.1478 eV
             Fermi-level           -0.3155083 Eh           -8.5854 eV

     #   Z          covCN         q      C6AA      α(0)
     1   7 N        2.695    -0.201    25.370     7.481
     2   6 C        3.825     0.028    20.093     6.378
     3   6 C        2.760     0.253    22.746     7.810
     4   8 O        0.857    -0.444    22.587     6.372
     5   7 N        2.688    -0.186    25.038     7.432
     6   6 C        3.781     0.019    20.268     6.413
     7   6 C        2.792     0.282    22.232     7.724
     8   6 C        3.779     0.026    20.165     6.398
     9   8 O        0.863    -0.412    21.920     6.277
    10   7 N        2.686    -0.217    25.733     7.534
    11   6 C        3.818    -0.062    21.681     6.627
    12   6 C        2.737     0.268    22.469     7.761
    13   6 C        3.780    -0.061    21.703     6.637
    14   6 C        3.795     0.014    20.347     6.423
    15   8 O        0.857    -0.373    21.145     6.165
    16   6 C        3.784    -0.074    21.933     6.671
    17   7 N        2.694    -0.151    24.268     7.316
    18   6 C        3.779    -0.107    22.574     6.769
    19   6 C        3.722     0.015    20.439     6.456
    20   6 C        2.794     0.274    22.364     7.747
    21   6 C        2.743     0.293    22.036     7.686
    22   7 N        2.626    -0.333    28.585     7.941
    23   6 C        3.789     0.011    20.401     6.433
    24   8 O        0.860    -0.457    22.862     6.411
    25   8 O        0.858    -0.429    22.268     6.327
    26   7 N        2.649    -0.273    27.071     7.727
    27   7 N        2.678    -0.202    25.400     7.485
    28   6 C        3.798    -0.078    21.993     6.677
    29   6 C        2.759     0.267    22.486     7.765
    30   6 C        2.752     0.276    22.340     7.740
    31   8 O        0.859    -0.441    22.523     6.363
    32   8 O        0.858    -0.450    22.704     6.388
    33   7 N        2.634    -0.257    26.679     7.671
    34   6 C        3.836    -0.019    20.885     6.502
    35   6 C        3.755    -0.115    22.748     6.801
    36   6 C        3.754    -0.128    23.009     6.840
    37   6 C        3.750    -0.058    21.676     6.640
    38   6 C        3.801    -0.102    22.449     6.746
    39   6 C        2.742     0.288    22.110     7.699
    40   8 O        0.857    -0.407    21.823     6.263
    41   7 N        2.631    -0.276    27.143     7.738
    42   1 H        0.857     0.221     1.007     1.572
    43   1 H        0.927     0.047     2.360     2.402
    44   1 H        0.861     0.181     1.208     1.722
    45   1 H        0.921     0.079     1.991     2.207
    46   1 H        0.906     0.080     1.983     2.203
    47   1 H        0.862     0.198     1.119     1.657
    48   1 H        0.926     0.045     2.380     2.413
    49   1 H        0.926     0.047     2.360     2.402
    50   1 H        0.919     0.031     2.573     2.509
    51   1 H        0.913     0.022     2.702     2.571
    52   1 H        0.913     0.069     2.095     2.264
    53   1 H        0.918     0.028     2.612     2.528
    54   1 H        0.925     0.046     2.369     2.407
    55   1 H        0.861     0.218     1.018     1.580
    56   1 H        0.898     0.064     2.153     2.296
    57   1 H        0.925     0.065     2.138     2.286
    58   1 H        0.923     0.035     2.511     2.478
    59   1 H        0.919     0.036     2.499     2.472
    60   1 H        0.860     0.145     1.438     1.879
    61   1 H        0.859     0.141     1.465     1.896
    62   1 H        0.911     0.097     1.812     2.105
    63   1 H        0.854     0.199     1.114     1.654
    64   1 H        0.862     0.192     1.146     1.677
    65   1 H        0.860     0.225     0.986     1.555
    66   1 H        0.912     0.051     2.311     2.378
    67   1 H        0.924     0.094     1.839     2.121
    68   1 H        0.861     0.180     1.215     1.726
    69   1 H        0.860     0.211     1.053     1.607
    70   1 H        0.924     0.064     2.151     2.294
    71   1 H        0.928     0.043     2.405     2.425
    72   1 H        0.924     0.025     2.666     2.553
    73   1 H        0.926     0.052     2.292     2.368
    74   1 H        0.928     0.065     2.140     2.288
    75   1 H        0.928     0.058     2.221     2.330
    76   1 H        0.924     0.049     2.331     2.388
    77   1 H        0.880     0.041     2.441     2.446
    78   1 H        0.927     0.063     2.166     2.302
    79   1 H        0.927     0.062     2.171     2.304
    80   1 H        0.927     0.076     2.019     2.222
    81   1 H        0.857     0.181     1.209     1.723
    82   1 H        0.861     0.174     1.251     1.752

 Mol. C6AA /au·bohr⁶  :      63080.540022
 Mol. C8AA /au·bohr⁸  :    1391759.515081
 Mol. α(0) /au        :        374.192208


Wiberg/Mayer (AO) data.
largest (>0.10) Wiberg bond orders for each atom

 ---------------------------------------------------------------------------
     #   Z sym  total        # sym  WBO       # sym  WBO       # sym  WBO
 ---------------------------------------------------------------------------
     1   7 N    3.337 --     7 C    1.210     2 C    0.980    42 H    0.877
                             9 O    0.171
     2   6 C    3.969 --     1 N    0.980     3 C    0.973    43 H    0.945
                            34 C    0.940
     3   6 C    3.944 --     4 O    1.642     5 N    1.243     2 C    0.973
     4   8 O    1.992 --     3 C    1.642     5 N    0.186
     5   7 N    3.433 --     3 C    1.243     6 C    0.970    44 H    0.938
                             4 O    0.186
     6   6 C    3.957 --    37 C    0.992     5 N    0.970    45 H    0.958
                            29 C    0.915
     7   6 C    3.953 --     9 O    1.720     1 N    1.210     8 C    0.949
     8   6 C    3.960 --    11 C    0.984    10 N    0.964     7 C    0.949
                            46 H    0.940
     9   8 O    2.023 --     7 C    1.720     1 N    0.171
    10   7 N    3.382 --    12 C    1.208     8 C    0.964    47 H    0.921
                            15 O    0.201
    11   6 C    3.991 --    13 C    1.011     8 C    0.984    49 H    0.967
                            48 H    0.964
    12   6 C    3.951 --    15 O    1.775    10 N    1.208    14 C    0.902
    13   6 C    3.988 --    11 C    1.011    16 C    0.994    50 H    0.974
                            51 H    0.972
    14   6 C    3.951 --    17 N    0.998    52 H    0.959    18 C    0.951
                            12 C    0.902
    15   8 O    2.094 --    12 C    1.775    10 N    0.201
    16   6 C    3.989 --    13 C    0.994    19 C    0.990    53 H    0.976
                            54 H    0.975
    17   7 N    3.482 --    20 C    1.308    14 C    0.998    55 H    0.915
                            24 O    0.184
    18   6 C    3.990 --    21 C    0.975    57 H    0.965    14 C    0.951
                            56 H    0.943
    19   6 C    3.982 --    22 N    1.031    16 C    0.990    59 H    0.973
                            58 H    0.971
    20   6 C    3.952 --    24 O    1.634    17 N    1.308    23 C    0.927
    21   6 C    3.952 --    25 O    1.706    26 N    1.240    18 C    0.975
    22   7 N    3.010 --    19 C    1.031    61 H    0.966    60 H    0.964
    23   6 C    3.960 --    28 C    0.959    27 N    0.959    62 H    0.941
                            20 C    0.927
    24   8 O    1.991 --    20 C    1.634    17 N    0.184
    25   8 O    2.001 --    21 C    1.706    26 N    0.173
    26   7 N    3.317 --    21 C    1.240    64 H    0.939    63 H    0.924
                            25 O    0.173
    27   7 N    3.427 --    29 C    1.297    23 C    0.959    65 H    0.890
                            31 O    0.195
    28   6 C    3.989 --    30 C    1.004    66 H    0.965    23 C    0.959
                            67 H    0.949
    29   6 C    3.954 --    31 O    1.671    27 N    1.297     6 C    0.915
    30   6 C    3.954 --    32 O    1.659    33 N    1.259    28 C    1.004
    31   8 O    2.000 --    29 C    1.671    27 N    0.195
    32   8 O    1.948 --    30 C    1.659    33 N    0.184
    33   7 N    3.358 --    30 C    1.259    68 H    0.946    69 H    0.935
                            32 O    0.184
    34   6 C    3.981 --    35 C    1.014    36 C    1.000    70 H    0.967
                             2 C    0.940
    35   6 C    3.990 --    34 C    1.014    71 H    0.987    73 H    0.984
                            72 H    0.980
    36   6 C    3.989 --    34 C    1.000    76 H    0.986    74 H    0.986
                            75 H    0.985
    37   6 C    3.986 --     6 C    0.992    78 H    0.975    38 C    0.970
                            77 H    0.969
    38   6 C    3.988 --    39 C    0.986    80 H    0.974    37 C    0.970
                            79 H    0.966
    39   6 C    3.946 --    40 O    1.731    41 N    1.206    38 C    0.986
    40   8 O    2.027 --    39 C    1.731    41 N    0.195
    41   7 N    3.334 --    39 C    1.206    82 H    0.951    81 H    0.947
                            40 O    0.195
    42   1 H    0.951 --     1 N    0.877
    43   1 H    0.998 --     2 C    0.945
    44   1 H    0.967 --     5 N    0.938
    45   1 H    0.993 --     6 C    0.958
    46   1 H    0.993 --     8 C    0.940
    47   1 H    0.961 --    10 N    0.921
    48   1 H    0.998 --    11 C    0.964
    49   1 H    0.997 --    11 C    0.967
    50   1 H    0.998 --    13 C    0.974
    51   1 H    1.000 --    13 C    0.972
    52   1 H    0.994 --    14 C    0.959
    53   1 H    0.999 --    16 C    0.976
    54   1 H    0.998 --    16 C    0.975
    55   1 H    0.952 --    17 N    0.915
    56   1 H    0.996 --    18 C    0.943
    57   1 H    0.996 --    18 C    0.965
    58   1 H    0.999 --    19 C    0.971
    59   1 H    0.999 --    19 C    0.973
    60   1 H    0.979 --    22 N    0.964
    61   1 H    0.980 --    22 N    0.966
    62   1 H    0.990 --    23 C    0.941
    63   1 H    0.960 --    26 N    0.924
    64   1 H    0.963 --    26 N    0.939
    65   1 H    0.949 --    27 N    0.890
    66   1 H    0.997 --    28 C    0.965
    67   1 H    0.990 --    28 C    0.949
    68   1 H    0.968 --    33 N    0.946
    69   1 H    0.955 --    33 N    0.935
    70   1 H    0.996 --    34 C    0.967
    71   1 H    0.998 --    35 C    0.987
    72   1 H    0.999 --    35 C    0.980
    73   1 H    0.997 --    35 C    0.984
    74   1 H    0.996 --    36 C    0.986
    75   1 H    0.997 --    36 C    0.985
    76   1 H    0.998 --    36 C    0.986
    77   1 H    0.998 --    37 C    0.969
    78   1 H    0.996 --    37 C    0.975
    79   1 H    0.996 --    38 C    0.966
    80   1 H    0.994 --    38 C    0.974
    81   1 H    0.967 --    41 N    0.947
    82   1 H    0.970 --    41 N    0.951
 ---------------------------------------------------------------------------

Topologies differ in total number of bonds
Writing topology from bond orders to xtbtopo.mol

molecular dipole:
                 x           y           z       tot (Debye)
 q only:       -1.238       1.465      -2.677
   full:       -1.076       2.093      -2.703       9.110
molecular quadrupole (traceless):
                xx          xy          yy          xz          yz          zz
 q only:       10.232      -8.758       8.168       9.318     -33.961     -18.400
  q+dip:        5.798     -18.590       4.691      10.256     -47.722     -10.489
   full:        6.874     -18.992       4.881       9.914     -47.786     -11.755


           -------------------------------------------------
          | TOTAL ENERGY             -131.077212617886 Eh   |
          | GRADIENT NORM               0.343541999626 Eh/α |
          | HOMO-LUMO GAP               3.147800085917 eV   |
           -------------------------------------------------

------------------------------------------------------------------------
 * finished run on 2026/05/23 at 12:40:21.797     
------------------------------------------------------------------------
 total:
 * wall-time:     0 d,  0 h,  0 min, 12.712 sec
 *  cpu-time:     0 d,  0 h,  0 min, 17.927 sec
 * ratio c/w:     1.410 speedup
 SCF:
 * wall-time:     0 d,  0 h,  0 min, 12.168 sec
 *  cpu-time:     0 d,  0 h,  0 min, 17.458 sec
 * ratio c/w:     1.435 speedup

normal termination of xtb
