      -----------------------------------------------------------      
     |                   =====================                   |     
     |                           x T B                           |     
     |                   =====================                   |     
     |                         S. Grimme                         |     
     |          Mulliken Center for Theoretical Chemistry        |     
     |                    University of Bonn                     |     
      -----------------------------------------------------------      

   * xtb version 6.7.1 (edcfbbe) compiled by 'albert@albert-system' on 2024-07-22

   xtb is free software: you can redistribute it and/or modify it under
   the terms of the GNU Lesser General Public License as published by
   the Free Software Foundation, either version 3 of the License, or
   (at your option) any later version.
   
   xtb is distributed in the hope that it will be useful,
   but WITHOUT ANY WARRANTY; without even the implied warranty of
   MERCHANTABILITY or FITNESS FOR A PARTICULAR PURPOSE.  See the
   GNU Lesser General Public License for more details.
   
   Cite this work as:
   * C. Bannwarth, E. Caldeweyher, S. Ehlert, A. Hansen, P. Pracht,
     J. Seibert, S. Spicher, S. Grimme, WIREs Comput. Mol. Sci., 2020, 11,
     e01493. DOI: 10.1002/wcms.1493
   
   for GFN2-xTB:
   * C. Bannwarth, S. Ehlert and S. Grimme., J. Chem. Theory Comput., 2019,
     15, 1652-1671. DOI: 10.1021/acs.jctc.8b01176
   for GFN1-xTB:
   * S. Grimme, C. Bannwarth, P. Shushkov, J. Chem. Theory Comput., 2017,
     13, 1989-2009. DOI: 10.1021/acs.jctc.7b00118
   for GFN0-xTB:
   * P. Pracht, E. Caldeweyher, S. Ehlert, S. Grimme, ChemRxiv, 2019, preprint.
     DOI: 10.26434/chemrxiv.8326202.v1
   for GFN-FF:
   * S. Spicher and S. Grimme, Angew. Chem. Int. Ed., 2020, 59, 15665-15673.
     DOI: 10.1002/anie.202004239
   
   for ALPB and GBSA implicit solvation:
   * S. Ehlert, M. Stahn, S. Spicher, S. Grimme, J. Chem. Theory Comput.,
     2021, 17, 4250-4261. DOI: 10.1021/acs.jctc.1c00471
   
   for ddCOSMO and CPCM-X implicit solvation:
   * M. Stahn, S. Ehlert, S. Grimme, J. Phys. Chem. A,
     2023, XX, XXXX-XXXX. DOI: 10.1021/acs.jpca.3c04382
   
   for DFT-D4:
   * E. Caldeweyher, C. Bannwarth and S. Grimme, J. Chem. Phys., 2017,
     147, 034112. DOI: 10.1063/1.4993215
   * E. Caldeweyher, S. Ehlert, A. Hansen, H. Neugebauer, S. Spicher,
     C. Bannwarth and S. Grimme, J. Chem. Phys., 2019, 150, 154122.
     DOI: 10.1063/1.5090222
   * E. Caldeweyher, J.-M. Mewes, S. Ehlert and S. Grimme, Phys. Chem. Chem. Phys.
     2020, 22, 8499-8512. DOI: 10.1039/D0CP00502A
   
   for sTDA-xTB:
   * S. Grimme and C. Bannwarth, J. Chem. Phys., 2016, 145, 054103.
     DOI: 10.1063/1.4959605
   
   in the mass-spec context:
   * V. Asgeirsson, C. Bauer and S. Grimme, Chem. Sci., 2017, 8, 4879.
     DOI: 10.1039/c7sc00601b
   * J. Koopman and S. Grimme, ACS Omega 2019, 4, 12, 15120-15133.
     DOI: 10.1021/acsomega.9b02011
   
   for metadynamics refer to:
   * S. Grimme, J. Chem. Theory Comput., 2019, 155, 2847-2862
     DOI: 10.1021/acs.jctc.9b00143
   
   for SPH calculations refer to:
   * S. Spicher and S. Grimme, J. Chem. Theory Comput., 2021, 17, 1701-1714
     DOI: 10.1021/acs.jctc.0c01306
   
   for ONIOM refer to:
   * C. Plett, A. Katbashev, S. Ehlert, S. Grimme, M. Bursch,
     Phys. Chem. Chem. Phys., 2023, 25, 17860-17868. DOI: 10.1039/D3CP02178E
   
   for DIPRO refer to:
   * J. Kohn, N. Gildemeister, S. Grimme, D. Fazzi, A. Hansen,
     J. Chem. Phys., 2023, just accepted.
   
   for PTB refer to:
   * S. Grimme, M. Mueller, A. Hansen, J. Chem. Phys., 2023, 158, 124111.
     DOI: 10.1063/5.0137838
   
   with help from (in alphabetical order)
   P. Atkinson, C. Bannwarth, F. Bohle, G. Brandenburg, E. Caldeweyher
   M. Checinski, S. Dohm, S. Ehlert, S. Ehrlich, I. Gerasimov, C. Hölzer
   A. Katbashev, J. Kohn, J. Koopman, C. Lavigne, S. Lehtola, F. März, M. Müller,
   F. Musil, H. Neugebauer, J. Pisarek, C. Plett, P. Pracht, F. Pultar,
   J. Seibert, P. Shushkov, S. Spicher, M. Stahn, M. Steiner, T. Strunk,
   J. Stückrath, T. Rose, and J. Unsleber
   
 * started run on 2026/05/23 at 08:18:00.371     
   ID    Z sym.   atoms
    1    7 N      1, 5, 10, 17, 23, 28, 35
    2    6 C      2, 3, 6-8, 11-14, 16, 20, 21, 24-26, 29, 31-34, 36-40
    3    8 O      4, 9, 15, 18, 19, 22, 27, 30
    4    1 H      41-70

           -------------------------------------------------
          |                Calculation Setup                |
           -------------------------------------------------

          program call               : /home/xchen/software/xtb-6.7.1/xtb-dist/bin/xtb /home/xchen/Test/benchmark/md_sampled/01_6_0109_n1/snap_0168.xyz --charge -1 --gfn 2 --norestart
          coordinate file            : /home/xchen/Test/benchmark/md_sampled/01_6_0109_n1/snap_0168.xyz
          omp threads                :                    48


           -------------------------------------------------
          |                 G F N 2 - x T B                 |
           -------------------------------------------------

        Reference                      10.1021/acs.jctc.8b01176
      * Hamiltonian:
        H0-scaling (s, p, d)           1.850000    2.230000    2.230000
        zeta-weighting                 0.500000
      * Dispersion:
        s8                             2.700000
        a1                             0.520000
        a2                             5.000000
        s9                             5.000000
      * Repulsion:
        kExp                           1.500000    1.000000
        rExp                           1.000000
      * Coulomb:
        alpha                          2.000000
        third order                    shell-resolved
        anisotropic                    true
        a3                             3.000000
        a5                             4.000000
        cn-shift                       1.200000
        cn-exp                         4.000000
        max-rad                        5.000000


          ...................................................
          :                      SETUP                      :
          :.................................................:
          :  # basis functions                 190          :
          :  # atomic orbitals                 190          :
          :  # shells                          110          :
          :  # electrons                       214          :
          :  max. iterations                   250          :
          :  Hamiltonian                  GFN2-xTB          :
          :  restarted?                      false          :
          :  GBSA solvation                  false          :
          :  PC potential                    false          :
          :  electronic temp.          300.0000000     K    :
          :  accuracy                    1.0000000          :
          :  -> integral cutoff          0.2500000E+02      :
          :  -> integral neglect         0.1000000E-07      :
          :  -> SCF convergence          0.1000000E-05 Eh   :
          :  -> wf. convergence          0.1000000E-03 e    :
          :  Broyden damping             0.4000000          :
          :  net charge                         -1          :
          :  unpaired electrons                  0          :
          ...................................................

 iter      E             dE          RMSdq      gap      omega  full diag
   1   -123.0755236 -0.123076E+03  0.456E+00    3.09       0.0  T
   2   -123.3959620 -0.320438E+00  0.248E+00    2.21       1.0  T
   3   -123.4137493 -0.177873E-01  0.137E+00    1.13       1.0  T
   4   -123.4131963  0.552993E-03  0.423E-01    0.17       1.0  T
   5   -123.4273531 -0.141568E-01  0.150E-01    0.75       1.0  T
   6   -123.4279521 -0.599067E-03  0.684E-02    0.65       1.0  T
   7   -123.4279843 -0.321843E-04  0.350E-02    0.60       1.0  T
   8   -123.4279911 -0.681613E-05  0.150E-02    0.58       1.0  T
   9   -123.4279982 -0.711539E-05  0.597E-03    0.56       2.0  T
  10   -123.4279991 -0.882108E-06  0.279E-03    0.56       4.3  T
  11   -123.4279993 -0.161808E-06  0.926E-04    0.56      12.9  T
  12   -123.4279993 -0.104264E-07  0.381E-04    0.56      31.4  T

   *** convergence criteria satisfied after 12 iterations ***

         #    Occupation            Energy/Eh            Energy/eV
      -------------------------------------------------------------
         1        2.0000           -0.6753333             -18.3768
       ...           ...                  ...                  ...
       101        2.0000           -0.3219288              -8.7601
       102        2.0000           -0.3199653              -8.7067
       103        2.0000           -0.3097386              -8.4284
       104        2.0000           -0.3083745              -8.3913
       105        2.0000           -0.2287520              -6.2247
       106        2.0000           -0.2182258              -5.9382
       107        2.0000           -0.2055529              -5.5934 (HOMO)
       108        0.0000           -0.1848701              -5.0306 (LUMO)
       109        0.0000           -0.1824796              -4.9655
       110                         -0.1691666              -4.6033
       111                         -0.1661113              -4.5201
       112                         -0.1603742              -4.3640
       ...                                ...                  ...
       190                          0.8126608              22.1136
      -------------------------------------------------------------
                  HL-Gap            0.0206828 Eh            0.5628 eV
             Fermi-level           -0.1952484 Eh           -5.3130 eV

 SCC (total)                   0 d,  0 h,  0 min, 14.143 sec
 SCC setup                      ...        0 min,  0.040 sec (  0.282%)
 Dispersion                     ...        0 min,  0.114 sec (  0.804%)
 classical contributions        ...        0 min,  0.522 sec (  3.691%)
 integral evaluation            ...        0 min,  0.435 sec (  3.078%)
 iterations                     ...        0 min, 11.992 sec ( 84.792%)
 molecular gradient             ...        0 min,  1.026 sec (  7.256%)
 printout                       ...        0 min,  0.014 sec (  0.098%)

         :::::::::::::::::::::::::::::::::::::::::::::::::::::
         ::                     SUMMARY                     ::
         :::::::::::::::::::::::::::::::::::::::::::::::::::::
         :: total energy            -122.028290694736 Eh    ::
         :: gradient norm              0.303648642246 Eh/a0 ::
         :: HOMO-LUMO gap              0.562808670538 eV    ::
         ::.................................................::
         :: SCC energy              -123.427255196520 Eh    ::
         :: -> isotropic ES            0.399604487401 Eh    ::
         :: -> anisotropic ES          0.011144317581 Eh    ::
         :: -> anisotropic XC          0.031332850826 Eh    ::
         :: -> dispersion             -0.079259165194 Eh    ::
         :: repulsion energy           1.398964501783 Eh    ::
         :: add. restraining           0.000000000000 Eh    ::
         :: total charge              -1.000000001463 e     ::
         :::::::::::::::::::::::::::::::::::::::::::::::::::::

           -------------------------------------------------
          |                Property Printout                |
           -------------------------------------------------

    * Orbital Energies and Occupations

         #    Occupation            Energy/Eh            Energy/eV
      -------------------------------------------------------------
         1        2.0000           -0.6753333             -18.3768
       ...           ...                  ...                  ...
        95        2.0000           -0.3415347              -9.2936
        96        2.0000           -0.3385794              -9.2132
        97        2.0000           -0.3345780              -9.1043
        98        2.0000           -0.3255784              -8.8594
        99        2.0000           -0.3250591              -8.8453
       100        2.0000           -0.3230922              -8.7918
       101        2.0000           -0.3219288              -8.7601
       102        2.0000           -0.3199653              -8.7067
       103        2.0000           -0.3097386              -8.4284
       104        2.0000           -0.3083745              -8.3913
       105        2.0000           -0.2287520              -6.2247
       106        2.0000           -0.2182258              -5.9382
       107        2.0000           -0.2055529              -5.5934 (HOMO)
       108        0.0000           -0.1848701              -5.0306 (LUMO)
       109        0.0000           -0.1824796              -4.9655
       110                         -0.1691666              -4.6033
       111                         -0.1661113              -4.5201
       112                         -0.1603742              -4.3640
       113                         -0.1522911              -4.1441
       114                         -0.1454174              -3.9570
       115                         -0.1337451              -3.6394
       116                         -0.1093564              -2.9757
       117                         -0.0439608              -1.1962
       118                         -0.0226491              -0.6163
       ...                                ...                  ...
       190                          0.8126608              22.1136
      -------------------------------------------------------------
                  HL-Gap            0.0206828 Eh            0.5628 eV
             Fermi-level           -0.1952484 Eh           -5.3130 eV

     #   Z          covCN         q      C6AA      α(0)
     1   7 N        2.678    -0.226    25.936     7.564
     2   6 C        3.745    -0.005    20.740     6.496
     3   6 C        2.744     0.287    22.140     7.704
     4   8 O        0.864    -0.404    21.761     6.254
     5   7 N        2.661    -0.235    26.156     7.596
     6   6 C        3.758     0.020    20.295     6.423
     7   6 C        2.765     0.261    22.606     7.787
     8   6 C        3.780     0.029    20.104     6.388
     9   8 O        0.859    -0.481    23.376     6.482
    10   7 N        2.688    -0.181    24.929     7.415
    11   6 C        3.802    -0.047    21.410     6.588
    12   6 C        2.741     0.276    22.339     7.739
    13   6 C        3.778    -0.095    22.344     6.735
    14   6 C        3.720    -0.037    21.354     6.600
    15   8 O        0.858    -0.393    21.546     6.223
    16   6 C        2.672     0.363    20.839     7.470
    17   7 N        2.684    -0.176    24.822     7.399
    18   8 O        0.856    -0.551    24.952     6.697
    19   8 O        0.855    -0.587    25.791     6.809
    20   6 C        2.768     0.255    22.720     7.806
    21   6 C        3.813     0.031    20.040     6.372
    22   8 O        0.861    -0.459    22.885     6.414
    23   7 N        2.690    -0.186    25.040     7.432
    24   6 C        3.774    -0.133    23.082     6.846
    25   6 C        2.766     0.278    22.302     7.734
    26   6 C        3.748    -0.026    21.108     6.553
    27   8 O        0.858    -0.422    22.125     6.306
    28   7 N        2.685    -0.169    24.668     7.377
    29   6 C        2.745     0.266    22.510     7.769
    30   8 O        0.860    -0.450    22.701     6.388
    31   6 C        3.786    -0.054    21.556     6.613
    32   6 C        3.034    -0.013    28.296     8.725
    33   6 C        3.006     0.004    27.912     8.666
    34   6 C        3.091    -0.016    28.310     8.721
    35   7 N        2.741    -0.146    24.152     7.299
    36   6 C        3.034     0.045    26.960     8.517
    37   6 C        2.907    -0.039    28.974     8.826
    38   6 C        2.908    -0.056    29.380     8.888
    39   6 C        2.906    -0.040    28.995     8.829
    40   6 C        2.892    -0.031    28.765     8.793
    41   1 H        0.860     0.200     1.108     1.649
    42   1 H        0.928     0.090     1.874     2.141
    43   1 H        0.923     0.078     2.003     2.213
    44   1 H        0.856     0.168     1.287     1.778
    45   1 H        0.923     0.073     2.055     2.242
    46   1 H        0.922     0.053     2.285     2.364
    47   1 H        0.861     0.201     1.103     1.645
    48   1 H        0.918     0.019     2.747     2.592
    49   1 H        0.926     0.081     1.971     2.195
    50   1 H        0.921    -0.002     3.092     2.750
    51   1 H        0.919     0.014     2.821     2.627
    52   1 H        0.912     0.061     2.190     2.315
    53   1 H        0.927     0.090     1.878     2.143
    54   1 H        0.859     0.207     1.070     1.621
    55   1 H        0.927     0.070     2.080     2.255
    56   1 H        0.855     0.179     1.223     1.732
    57   1 H        0.925     0.044     2.397     2.421
    58   1 H        0.925     0.082     1.958     2.188
    59   1 H        0.923     0.056     2.246     2.344
    60   1 H        0.921     0.056     2.253     2.347
    61   1 H        0.925     0.107     1.726     2.054
    62   1 H        0.862     0.204     1.087     1.633
    63   1 H        0.909     0.057     2.233     2.338
    64   1 H        0.926     0.073     2.051     2.240
    65   1 H        0.925     0.059     2.215     2.327
    66   1 H        0.860     0.150     1.401     1.854
    67   1 H        0.921     0.022     2.697     2.568
    68   1 H        0.928     0.026     2.644     2.543
    69   1 H        0.925     0.024     2.674     2.557
    70   1 H        0.904     0.005     2.984     2.702

 Mol. C6AA /au·bohr⁶  :      56192.724036
 Mol. C8AA /au·bohr⁸  :    1292148.226996
 Mol. α(0) /au        :        359.622005


Wiberg/Mayer (AO) data.
largest (>0.10) Wiberg bond orders for each atom

 ---------------------------------------------------------------------------
     #   Z sym  total        # sym  WBO       # sym  WBO       # sym  WBO
 ---------------------------------------------------------------------------
     1   7 N    3.316 --     7 C    1.198     2 C    0.975    41 H    0.899
                             9 O    0.149
     2   6 C    3.972 --     3 C    1.004     1 N    0.975    42 H    0.956
                            43 H    0.937
     3   6 C    3.946 --     4 O    1.750     5 N    1.129     2 C    1.004
     4   8 O    2.035 --     3 C    1.750     5 N    0.170
     5   7 N    3.292 --     3 C    1.129     6 C    0.965    44 H    0.940
                             4 O    0.170
     6   6 C    3.957 --    31 C    0.966     5 N    0.965    45 H    0.940
                            29 C    0.931
     7   6 C    3.929 --     9 O    1.638     1 N    1.198     8 C    0.979
     8   6 C    3.965 --    10 N    1.007     7 C    0.979    46 H    0.948
                            11 C    0.905
     9   8 O    1.954 --     7 C    1.638     1 N    0.149
    10   7 N    3.436 --    12 C    1.239     8 C    1.007    47 H    0.913
                            15 O    0.196
    11   6 C    3.977 --    13 C    1.028    48 H    0.974    49 H    0.959
                             8 C    0.905
    12   6 C    3.951 --    15 O    1.739    10 N    1.239    14 C    0.908
    13   6 C    3.952 --    11 C    1.028    50 H    0.962    51 H    0.961
                            16 C    0.821
    14   6 C    3.954 --    17 N    0.995    53 H    0.957    52 H    0.949
                            12 C    0.908
    15   8 O    2.071 --    12 C    1.739    10 N    0.196
    16   6 C    3.943 --    18 O    1.575    19 O    1.521    13 C    0.821
    17   7 N    3.476 --    20 C    1.302    14 C    0.995    54 H    0.893
                            22 O    0.206
    18   8 O    1.906 --    16 C    1.575    19 O    0.236
    19   8 O    1.832 --    16 C    1.521    18 O    0.236
    20   6 C    3.954 --    22 O    1.645    17 N    1.302    21 C    0.927
    21   6 C    3.966 --    24 C    1.016    23 N    0.965    55 H    0.953
                            20 C    0.927
    22   8 O    1.974 --    20 C    1.645    17 N    0.206
    23   7 N    3.405 --    25 C    1.244    21 C    0.965    56 H    0.926
                            27 O    0.181
    24   6 C    3.959 --    21 C    1.016    57 H    0.984    59 H    0.966
                            58 H    0.955
    25   6 C    3.950 --    27 O    1.681    23 N    1.244    26 C    0.953
    26   6 C    3.972 --    28 N    1.000    60 H    0.956    25 C    0.953
                            61 H    0.938
    27   8 O    2.042 --    25 C    1.681    23 N    0.181
    28   7 N    3.449 --    29 C    1.269    26 C    1.000    62 H    0.922
                            30 O    0.191
    29   6 C    3.947 --    30 O    1.669    28 N    1.269     6 C    0.931
    30   8 O    1.994 --    29 C    1.669    28 N    0.191
    31   6 C    3.984 --    32 C    1.006    64 H    0.972     6 C    0.966
                            63 H    0.965
    32   6 C    3.980 --    33 C    1.649    34 C    1.178    31 C    1.006
    33   6 C    3.948 --    32 C    1.649    35 N    1.136    65 H    0.964
    34   6 C    3.980 --    36 C    1.295    37 C    1.289    32 C    1.178
    35   7 N    3.466 --    36 C    1.156    33 C    1.136    66 H    0.949
    36   6 C    3.955 --    38 C    1.317    34 C    1.295    35 N    1.156
    37   6 C    3.986 --    39 C    1.521    34 C    1.289    67 H    0.969
                            38 C    0.121
    38   6 C    3.986 --    40 C    1.496    36 C    1.317    68 H    0.973
                            37 C    0.121
    39   6 C    3.990 --    37 C    1.521    40 C    1.371    69 H    0.969
    40   6 C    3.985 --    38 C    1.496    39 C    1.371    70 H    0.965
    41   1 H    0.960 --     1 N    0.899
    42   1 H    0.991 --     2 C    0.956
    43   1 H    0.993 --     2 C    0.937
    44   1 H    0.971 --     5 N    0.940
    45   1 H    0.994 --     6 C    0.940
    46   1 H    0.997 --     8 C    0.948
    47   1 H    0.960 --    10 N    0.913
    48   1 H    1.000 --    11 C    0.974
    49   1 H    0.993 --    11 C    0.959
    50   1 H    1.000 --    13 C    0.962
    51   1 H    1.000 --    13 C    0.961
    52   1 H    0.996 --    14 C    0.949
    53   1 H    0.992 --    14 C    0.957
    54   1 H    0.957 --    17 N    0.893
    55   1 H    0.995 --    21 C    0.953
    56   1 H    0.968 --    23 N    0.926
    57   1 H    0.997 --    24 C    0.984
    58   1 H    0.993 --    24 C    0.955
    59   1 H    0.997 --    24 C    0.966
    60   1 H    0.996 --    26 C    0.956
    61   1 H    0.988 --    26 C    0.938
    62   1 H    0.958 --    28 N    0.922
    63   1 H    0.996 --    31 C    0.965
    64   1 H    0.994 --    31 C    0.972
    65   1 H    0.996 --    33 C    0.964
    66   1 H    0.977 --    35 N    0.949
    67   1 H    0.999 --    37 C    0.969
    68   1 H    0.999 --    38 C    0.973
    69   1 H    0.999 --    39 C    0.969
    70   1 H    0.999 --    40 C    0.965
 ---------------------------------------------------------------------------

Topologies differ in total number of bonds
Writing topology from bond orders to xtbtopo.mol

molecular dipole:
                 x           y           z       tot (Debye)
 q only:        3.450       9.231       8.138
   full:        3.407       9.483       8.100      32.861
molecular quadrupole (traceless):
                xx          xy          yy          xz          yz          zz
 q only:       48.681     -55.721     -38.552     -52.759    -132.753     -10.128
  q+dip:       39.171     -58.152     -37.042     -52.926    -140.856      -2.129
   full:       41.459     -58.582     -38.787     -54.277    -140.591      -2.672


           -------------------------------------------------
          | TOTAL ENERGY             -122.028290694736 Eh   |
          | GRADIENT NORM               0.303648642246 Eh/α |
          | HOMO-LUMO GAP               0.562808670538 eV   |
           -------------------------------------------------

------------------------------------------------------------------------
 * finished run on 2026/05/23 at 08:18:15.724     
------------------------------------------------------------------------
 total:
 * wall-time:     0 d,  0 h,  0 min, 15.352 sec
 *  cpu-time:     0 d,  0 h,  0 min, 17.189 sec
 * ratio c/w:     1.120 speedup
 SCF:
 * wall-time:     0 d,  0 h,  0 min, 14.144 sec
 *  cpu-time:     0 d,  0 h,  0 min, 16.101 sec
 * ratio c/w:     1.138 speedup

normal termination of xtb
