70
pH=7.79 total_charge=-1 partial_charge_sum=-1.000000 method=gasteiger energy=-375.24455775
N   0.24405628 -2.58961872 -1.56617519
C   1.45474552 -2.14524448 -2.30268525
C   2.10679303 -0.97728654 -1.66521560
O   2.71462003 -0.10739464 -2.24581298
N   1.87516848 -0.77600102 -0.36360052
C   2.37751009  0.20211343  0.56035318
C  -0.95342346 -1.90764715 -1.99657839
C  -2.19568203 -2.70168766 -2.01205359
O  -0.81728337 -0.83136793 -2.55013272
N  -3.20365759 -1.64852689 -2.08277457
C  -2.31650256 -3.54630005 -3.23272433
C  -4.41694292 -1.75051860 -1.53626182
C  -1.21647769 -4.59487198 -3.37799838
C  -5.15306230 -0.40752135 -1.44524994
O  -4.87263343 -2.80030338 -1.17325346
C  -1.58193231 -5.77145335 -4.34591289
N  -4.49619798  0.60996991 -0.67403875
O  -0.60679220 -6.35212029 -4.86087799
O  -2.87210019 -5.92712063 -4.37917299
C  -5.05385112  1.79995653 -0.45133440
C  -4.11337351  2.65973253  0.46930248
O  -6.04297308  2.18060161 -1.07675734
N  -2.83761522  2.74644557 -0.14656765
C  -4.91422896  3.99956224  0.67259376
C  -1.78281388  2.01790996  0.18064730
C  -0.52121078  2.49050933 -0.52314072
O  -1.85134098  1.10433488  1.03396488
N   0.53536548  1.52430776 -0.57828224
C   1.36729770  1.47294386  0.45398605
O   1.37229143  2.37732069  1.31122116
C   3.83960793  0.64956392  0.38914722
C   4.34185003  1.57106436  1.48494198
C   4.83424065  2.78144521  1.55755748
C   4.61597139  0.91475094  2.76391826
N   5.40349319  3.04035245  2.78158019
C   5.28970342  1.84339578  3.52841735
C   4.38634831 -0.38264399  3.25780656
C   5.78252893  1.47493001  4.72952323
C   4.95071645 -0.81115641  4.43401871
C   5.57398083  0.14818977  5.19689350
H   0.00468569 -3.57008755 -1.67708879
H   1.29959152 -1.82038079 -3.27540599
H   2.15709864 -2.98748271 -2.24397570
H   1.25943729 -1.55681132  0.03740555
H   2.25316254 -0.11703800  1.50783569
H  -2.30983416 -3.44068494 -1.25489438
H  -2.97411730 -0.70164434 -2.55835131
H  -2.22400223 -2.96640592 -4.16883754
H  -3.24343884 -4.07781096 -3.26219440
H  -1.29366523 -5.28342921 -2.43730803
H  -0.09386298 -4.34377263 -3.50998021
H  -6.13238980 -0.64577201 -1.09947607
H  -5.17291938  0.01897362 -2.42477733
H  -3.85202017  0.23279335  0.05809439
H  -4.06582917  2.11238529  1.39259396
H  -2.84507659  3.45212023 -0.80946063
H  -4.55544467  4.82009245  1.30037026
H  -5.83781575  3.64471990  1.13465919
H  -5.25668049  4.27573237 -0.32898593
H  -0.97452993  2.62410117 -1.51110046
H  -0.01011985  3.44106218 -0.23656323
H   0.39999818  0.67074616 -1.21549551
H   4.49734352 -0.18931282  0.52602150
H   3.95034127  1.10323285 -0.53469982
H   5.12617167  3.44981738  0.77926773
H   6.06827969  3.78097198  2.90052446
H   3.86993823 -1.08665309  2.71074085
H   6.21647803  2.15040441  5.47408132
H   4.77134677 -1.71622643  4.92417778
H   5.82369349 -0.10951347  6.13518015
