      -----------------------------------------------------------      
     |                   =====================                   |     
     |                           x T B                           |     
     |                   =====================                   |     
     |                         S. Grimme                         |     
     |          Mulliken Center for Theoretical Chemistry        |     
     |                    University of Bonn                     |     
      -----------------------------------------------------------      

   * xtb version 6.7.1 (26dd68d) compiled by 'froitzheim@fs7' on 2026-05-14

   xtb is free software: you can redistribute it and/or modify it under
   the terms of the GNU Lesser General Public License as published by
   the Free Software Foundation, either version 3 of the License, or
   (at your option) any later version.
   
   xtb is distributed in the hope that it will be useful,
   but WITHOUT ANY WARRANTY; without even the implied warranty of
   MERCHANTABILITY or FITNESS FOR A PARTICULAR PURPOSE.  See the
   GNU Lesser General Public License for more details.
   
   Cite this work as:
   * C. Bannwarth, E. Caldeweyher, S. Ehlert, A. Hansen, P. Pracht,
     J. Seibert, S. Spicher, S. Grimme, WIREs Comput. Mol. Sci., 2020, 11,
     e01493. DOI: 10.1002/wcms.1493
   
   for g-xTB:
   * T. Froitzheim, M. Müller, A. Hansen, S. Grimme, ChemRxiv, 2025, preprint.
     DOI: 10.26434/chemrxiv-2025-bjxv
   for GFN2-xTB:
   * C. Bannwarth, S. Ehlert and S. Grimme., J. Chem. Theory Comput., 2019,
     15, 1652-1671. DOI: 10.1021/acs.jctc.8b01176
   for GFN1-xTB:
   * S. Grimme, C. Bannwarth, P. Shushkov, J. Chem. Theory Comput., 2017,
     13, 1989-2009. DOI: 10.1021/acs.jctc.7b00118
   for GFN0-xTB:
   * P. Pracht, E. Caldeweyher, S. Ehlert, S. Grimme, ChemRxiv, 2019, preprint.
     DOI: 10.26434/chemrxiv.8326202.v1
   for GFN-FF:
   * S. Spicher and S. Grimme, Angew. Chem. Int. Ed., 2020, 59, 15665-15673.
     DOI: 10.1002/anie.202004239
   
   for ALPB and GBSA implicit solvation:
   * S. Ehlert, M. Stahn, S. Spicher, S. Grimme, J. Chem. Theory Comput.,
     2021, 17, 4250-4261. DOI: 10.1021/acs.jctc.1c00471
   
   for ddCOSMO and CPCM-X implicit solvation:
   * M. Stahn, S. Ehlert, S. Grimme, J. Phys. Chem. A,
     2023, XX, XXXX-XXXX. DOI: 10.1021/acs.jpca.3c04382
   
   for DFT-D4:
   * E. Caldeweyher, C. Bannwarth and S. Grimme, J. Chem. Phys., 2017,
     147, 034112. DOI: 10.1063/1.4993215
   * E. Caldeweyher, S. Ehlert, A. Hansen, H. Neugebauer, S. Spicher,
     C. Bannwarth and S. Grimme, J. Chem. Phys., 2019, 150, 154122.
     DOI: 10.1063/1.5090222
   * E. Caldeweyher, J.-M. Mewes, S. Ehlert and S. Grimme, Phys. Chem. Chem. Phys.
     2020, 22, 8499-8512. DOI: 10.1039/D0CP00502A
   
   for sTDA-xTB:
   * S. Grimme and C. Bannwarth, J. Chem. Phys., 2016, 145, 054103.
     DOI: 10.1063/1.4959605
   
   in the mass-spec context:
   * V. Asgeirsson, C. Bauer and S. Grimme, Chem. Sci., 2017, 8, 4879.
     DOI: 10.1039/c7sc00601b
   * J. Koopman and S. Grimme, ACS Omega 2019, 4, 12, 15120-15133.
     DOI: 10.1021/acsomega.9b02011
   
   for metadynamics refer to:
   * S. Grimme, J. Chem. Theory Comput., 2019, 155, 2847-2862
     DOI: 10.1021/acs.jctc.9b00143
   
   for SPH calculations refer to:
   * S. Spicher and S. Grimme, J. Chem. Theory Comput., 2021, 17, 1701-1714
     DOI: 10.1021/acs.jctc.0c01306
   
   for ONIOM refer to:
   * C. Plett, A. Katbashev, S. Ehlert, S. Grimme, M. Bursch,
     Phys. Chem. Chem. Phys., 2023, 25, 17860-17868. DOI: 10.1039/D3CP02178E
   
   for DIPRO refer to:
   * J. Kohn, N. Gildemeister, S. Grimme, D. Fazzi, A. Hansen,
     J. Chem. Phys. 159, 144106 (2023). DOI: 10.1063/5.0167484
   
   for PTB refer to:
   * S. Grimme, M. Mueller, A. Hansen, J. Chem. Phys., 2023, 158, 124111.
     DOI: 10.1063/5.0137838
   
   with help from (in alphabetical order)
   P. Atkinson, C. Bannwarth, F. Bohle, G. Brandenburg, E. Caldeweyher,
   M. Checinski, S. Dohm, S. Ehlert, S. Ehrlich, M. Friede, T. Froitzheim,
   I. Gerasimov, C. Hölzer, A. Katbashev, J. Kohn, J. Koopman, C. Lavigne,
   S. Lehtola, F. März, M. Müller, F. Musil, H. Neugebauer, J. Pisarek,
   C. Plett, P. Pracht, F. Pultar, J. Seibert, P. Shushkov, S. Spicher,
   M. Stahn, M. Steiner, T. Strunk, J. Stückrath, T. Rose, and J. Unsleber
   
 * started run on 2026/05/23 at 08:19:49.021     
   ID    Z sym.   atoms
    1    7 N      1, 5, 10, 16, 18, 21, 27, 34, 42, 50
    2    6 C      2, 3, 6-8, 11-14, 17, 19, 20, 22-25, 28-31, 35-38, 40, 43,
                  44, 46-48
    3    8 O      4, 9, 15, 26, 32, 39, 41, 49
    4   16 S      33, 45
    5    1 H      51-96

           -------------------------------------------------
          |                Calculation Setup                |
           -------------------------------------------------

          program call               : /home/xchen/software/xtb-6.7.1-gxtb/bin/xtb /home/xchen/Test/benchmark/md_sampled/02_6_0901_0/snap_0160.xyz --charge 0 --gxtb --norestart
          coordinate file            : /home/xchen/Test/benchmark/md_sampled/02_6_0901_0/snap_0160.xyz
          omp threads                :                    48

core increment energy         -2.8923536237342E+03 Eh
dispersion energy              2.5171685911710E-02 Eh
molecular charge               0.0000000000000E+00 e
number of electrons            2.7599999999751E+02 e
number of unpaired electrons   0.0000000000000E+00 e
wavefunction                   restricted
integral cutoff                2.6907767250513E+01 bohr
energy convergence             1.0000000000000E-06 Eh
density convergence            2.0000000000000E-05 e

------------------------------------------------------------
  cycle        total energy    energy error   density error
------------------------------------------------------------
      1     -3115.401186698  -2.2307273E+02   0.0000000E+00
      2     -3115.819079165  -4.1789247E-01   2.0175599E-02
      3     -3116.082013062  -2.6293390E-01   1.5869776E-02
      4     -3116.627790387  -5.4577733E-01   1.2560388E-02
      5     -3116.637125775  -9.3353884E-03   8.6517672E-04
      6     -3116.637769456  -6.4368075E-04   1.5898906E-04
      7     -3116.637830018  -6.0562269E-05   5.7825216E-05
      8     -3116.637835817  -5.7992988E-06   1.3521118E-05
      9     -3116.637836715  -8.9760951E-07   4.4367837E-06
------------------------------------------------------------

electronic energy             -2.2430938466661E+02 Eh
total energy                  -3.1166378367149E+03 Eh

Post processing:
 | Mayer-Wiberg bond orders
 | Molecular Multipole Moments

 total:                                  11.058 sec
 - increment                              0.000 sec (  0%)
 - repulsion                              0.019 sec (  0%)
 - dispersion                             0.335 sec (  3%)
 - coulomb                                0.125 sec (  1%)
 - exchange                               0.007 sec (  0%)
 - hamiltonian                            0.351 sec (  3%)
 - acp                                    0.332 sec (  2%)
 - spin polarization                      0.000 sec (  0%)
 - post processing                        0.069 sec (  0%)
 - scc                                    8.672 sec ( 78%)
 - coulomb gradient                       0.061 sec (  0%)
 - dispersion gradient                    0.086 sec (  0%)
 - exchange gradient                      0.112 sec (  1%)
 - repulsion gradient                     0.044 sec (  0%)
 - acp gradient                           0.262 sec (  2%)
 - hamiltonian gradient                   0.644 sec (  5%)
 - gradient                               1.208 sec ( 10%)

         :::::::::::::::::::::::::::::::::::::::::::::::::::::
         ::                     SUMMARY                     ::
         :::::::::::::::::::::::::::::::::::::::::::::::::::::
         :: total energy           -3116.637836714901 Eh    ::
         :: gradient norm              0.422830697591 Eh/a0 ::
         :: HOMO-LUMO gap              8.796358539063 eV    ::
         ::.................................................::
         :: add. restraining           0.000000000000 Eh    ::
         :: total charge              -0.000000000000 e     ::
         :::::::::::::::::::::::::::::::::::::::::::::::::::::

           -------------------------------------------------
          |                Property Printout                |
           -------------------------------------------------

    * Orbital Energies and Occupations
------------------------------------------------------------------
      #    Occupation            Energy/Eh            Energy/eV
------------------------------------------------------------------
      1        2.0000           -1.3652004             -37.1490
    ...           ...                  ...                  ...
    126        2.0000           -0.3848901             -10.4734
    127        2.0000           -0.3729811             -10.1493
    128        2.0000           -0.3707322             -10.0881
    129        2.0000           -0.3663924              -9.9700
    130        2.0000           -0.3634870              -9.8910
    131        2.0000           -0.3601627              -9.8005
    132        2.0000           -0.3587437              -9.7619
    133        2.0000           -0.3553462              -9.6695
    134        2.0000           -0.3541628              -9.6373
    135        2.0000           -0.3528646              -9.6019
    136        2.0000           -0.3446999              -9.3798
    137        2.0000           -0.3396895              -9.2434
    138        2.0000           -0.3333980              -9.0722 (HOMO)
    139                         -0.0101378              -0.2759 (LUMO)
    140                         -0.0003783              -0.0103
    141                          0.0186200               0.5067
    142                          0.0227034               0.6178
    143                          0.0237190               0.6454
    144                          0.0246482               0.6707
    145                          0.0287700               0.7829
    146                          0.0326224               0.8877
    147                          0.0331250               0.9014
    148                          0.0403851               1.0989
    149                          0.0433294               1.1791
    ...                                ...                  ...
    256                          0.8085106              22.0007
------------------------------------------------------------------
               HL-Gap            0.3232602 Eh            8.7964 eV
------------------------------------------------------------------

Atomic charges and shell populations (in atomic units):
-----------------------------------------------------------------
     #    Z                q          p(s)       p(p)       p(d)
-----------------------------------------------------------------
     1    7 N      -0.381050      1.384467   3.996583
     2    6 C      -0.000376      1.115125   2.885250
     3    6 C       0.404930      1.114310   2.480760
     4    8 O      -0.502166      1.852884   4.649281
     5    7 N      -0.381078      1.370182   4.010896
     6    6 C      -0.008844      1.135753   2.873092
     7    6 C       0.403229      1.098793   2.497978
     8    6 C       0.001706      1.121010   2.877284
     9    8 O      -0.521244      1.857165   4.664079
    10    7 N      -0.373569      1.410066   3.963503
    11    6 C      -0.160467      1.121705   3.038762
    12    6 C       0.439165      1.100098   2.460737
    13    6 C       0.051598      1.111743   2.836659
    14    6 C       0.010597      1.128397   2.861006
    15    8 O      -0.478612      1.847484   4.631128
    16    7 N      -0.357566      1.558294   3.799272
    17    6 C      -0.070051      1.153267   2.916784
    18    7 N      -0.285983      1.376658   3.909325
    19    6 C      -0.197742      1.143755   3.053987
    20    6 C       0.110832      1.119001   2.770168
    21    7 N      -0.256948      1.361658   3.895290
    22    6 C      -0.069790      1.120063   2.949727
    23    6 C       0.422808      1.106990   2.470202
    24    6 C      -0.187100      1.148798   3.038302
    25    6 C       0.012035      1.104159   2.883806
    26    8 O      -0.491417      1.853873   4.637544
    27    7 N      -0.381246      1.360400   4.020846
    28    6 C      -0.152747      1.152144   3.000602
    29    6 C       0.421097      1.082623   2.496280
    30    6 C      -0.124133      1.186557   2.937576
    31    6 C      -0.002530      1.125421   2.877108
    32    8 O      -0.486942      1.847363   4.639579
    33   16 S      -0.236127      1.881325   4.279684   0.075119
    34    7 N      -0.305932      1.345964   3.959967
    35    6 C      -0.157643      1.173061   2.984582
    36    6 C      -0.161597      1.195687   2.965910
    37    6 C       0.427560      1.090448   2.481992
    38    6 C      -0.188920      1.145171   3.043749
    39    8 O      -0.559962      1.850237   4.709725
    40    6 C       0.396958      1.104871   2.498172
    41    8 O      -0.547813      1.858463   4.689350
    42    7 N      -0.418520      1.387092   4.031428
    43    6 C      -0.147526      1.145505   3.002021
    44    6 C      -0.113230      1.180277   2.932954
    45   16 S      -0.185066      1.892883   4.222079   0.070105
    46    6 C      -0.245251      1.184076   3.061175
    47    6 C      -0.201867      1.160721   3.041146
    48    6 C       0.406320      1.095758   2.497922
    49    8 O      -0.514642      1.852525   4.662117
    50    7 N      -0.448163      1.372650   4.075514
    51    1 H       0.301016      0.698984
    52    1 H       0.134972      0.865028
    53    1 H       0.262293      0.737707
    54    1 H       0.166178      0.833822
    55    1 H       0.127687      0.872313
    56    1 H       0.247683      0.752317
    57    1 H       0.115224      0.884776
    58    1 H       0.122706      0.877294
    59    1 H       0.131181      0.868819
    60    1 H       0.140998      0.859002
    61    1 H       0.126150      0.873850
    62    1 H       0.117084      0.882916
    63    1 H       0.113038      0.886962
    64    1 H       0.275636      0.724364
    65    1 H       0.112438      0.887562
    66    1 H       0.089540      0.910460
    67    1 H       0.077734      0.922266
    68    1 H       0.108589      0.891411
    69    1 H       0.156452      0.843548
    70    1 H       0.273690      0.726310
    71    1 H       0.103163      0.896837
    72    1 H       0.085969      0.914031
    73    1 H       0.109987      0.890013
    74    1 H       0.087655      0.912345
    75    1 H       0.134229      0.865771
    76    1 H       0.286032      0.713968
    77    1 H       0.086541      0.913459
    78    1 H       0.131648      0.868352
    79    1 H       0.102093      0.897907
    80    1 H       0.122627      0.877373
    81    1 H       0.079467      0.920533
    82    1 H       0.142059      0.857941
    83    1 H       0.117924      0.882076
    84    1 H       0.257356      0.742644
    85    1 H       0.248734      0.751266
    86    1 H       0.098218      0.901782
    87    1 H       0.092175      0.907825
    88    1 H       0.147331      0.852669
    89    1 H       0.101178      0.898822
    90    1 H       0.108695      0.891305
    91    1 H       0.093781      0.906219
    92    1 H       0.113009      0.886991
    93    1 H       0.088420      0.911580
    94    1 H       0.145216      0.854784
    95    1 H       0.269645      0.730355
    96    1 H       0.241585      0.758415
-----------------------------------------------------------------


Wiberg/Mayer (AO) data.
largest (>0.10) Wiberg bond orders for each atom

 ---------------------------------------------------------------------------
     #   Z sym  total        # sym  WBO       # sym  WBO       # sym  WBO
 ---------------------------------------------------------------------------
     1   7 N    3.300 --     7 C    1.240     2 C    0.961    51 N    0.782
                             9 C    0.170
     2   6 C    3.941 --    43 C    1.000     1 N    0.961    52 N    0.933
                             3 C    0.922
     3   6 C    3.859 --     4 C    1.710     5 N    1.142     2 C    0.922
     4   8 C    1.990 --     3 C    1.710     5 N    0.158
     5   7 N    3.267 --     3 C    1.142     6 C    0.979    53 N    0.882
                             4 C    0.158
     6   6 C    3.920 --     5 N    0.979    47 C    0.974    54 N    0.925
                            37 C    0.891
     7   6 C    3.883 --     9 C    1.662     1 N    1.240     8 C    0.919
     8   6 C    3.938 --    10 N    0.975    11 C    0.974    55 N    0.938
                             7 C    0.919
     9   8 C    1.949 --     7 C    1.662     1 N    0.170
    10   7 N    3.234 --    12 C    1.124     8 C    0.975    56 N    0.886
                            15 C    0.147
    11   6 C    3.962 --    13 C    1.035     8 C    0.974    58 N    0.944
                            57 N    0.935
    12   6 C    3.859 --    15 C    1.755    10 N    1.124    14 C    0.911
    13   6 C    3.945 --    17 C    1.607    16 N    1.155    11 C    1.035
    14   6 C    3.934 --    19 C    0.985    18 N    0.954    59 N    0.937
                            12 C    0.911
    15   8 C    2.023 --    12 C    1.755    10 N    0.147
    16   7 N    3.095 --    20 C    1.593    13 C    1.155    21 N    0.107
    17   6 C    3.883 --    13 C    1.607    21 N    1.154    60 N    0.946
    18   7 N    3.304 --    23 C    1.116    22 C    0.956    14 C    0.954
                            26 C    0.138
    19   6 C    3.958 --    24 C    1.002    14 C    0.985    61 N    0.958
                            62 N    0.951
    20   6 C    3.920 --    16 N    1.593    21 N    1.245    63 N    0.938
    21   7 N    3.492 --    20 C    1.245    17 C    1.154    64 N    0.895
                            16 N    0.107
    22   6 C    3.927 --    24 C    1.015    18 N    0.956    65 N    0.951
                            66 N    0.942
    23   6 C    3.859 --    26 C    1.726    18 N    1.116    25 C    0.926
    24   6 C    3.966 --    22 C    1.015    19 C    1.002    68 N    0.956
                            67 N    0.955
    25   6 C    3.939 --    28 C    0.992    27 N    0.974    23 C    0.926
                            69 N    0.917
    26   8 C    1.999 --    23 C    1.726    18 N    0.138
    27   7 N    3.265 --    29 C    1.137    25 C    0.974    70 N    0.870
                            32 C    0.165
    28   6 C    3.965 --    30 C    0.995    25 C    0.992    71 N    0.953
                            72 N    0.949
    29   6 C    3.885 --    32 C    1.715    27 N    1.137    31 C    0.963
    30   6 C    3.938 --    28 C    0.995    33 O    0.985    74 N    0.957
                            73 N    0.955
    31   6 C    3.924 --    29 C    0.963    34 N    0.961    75 N    0.939
                            35 C    0.934
    32   8 C    2.007 --    29 C    1.715    27 N    0.165
    33  16 O    2.098 --    36 C    1.005    30 C    0.985
    34   7 N    3.392 --    37 C    1.293    31 C    0.961    76 N    0.883
                            39 C    0.173
    35   6 C    3.946 --    38 C    1.007    77 N    0.956    78 N    0.949
                            31 C    0.934
    36   6 C    3.925 --    33 O    1.005    79 N    0.967    81 N    0.965
                            80 N    0.965
    37   6 C    3.875 --    39 C    1.612    34 N    1.293     6 C    0.891
    38   6 C    3.959 --    35 C    1.007    40 C    0.959    83 N    0.950
                            82 N    0.938
    39   8 C    1.937 --    37 C    1.612    34 N    0.173
    40   6 C    3.875 --    41 C    1.646    42 N    1.231    38 C    0.959
    41   8 C    1.909 --    40 C    1.646    42 N    0.156
    42   7 N    3.246 --    40 C    1.231    85 N    0.913    84 N    0.909
                            41 C    0.156
    43   6 C    3.963 --     2 C    1.000    44 C    0.992    87 N    0.952
                            86 N    0.949
    44   6 C    3.926 --    43 C    0.992    45 O    0.989    89 N    0.959
                            88 N    0.942
    45  16 O    2.088 --    46 C    1.002    44 C    0.989
    46   6 C    3.930 --    45 O    1.002    91 N    0.973    90 N    0.968
                            92 N    0.968
    47   6 C    3.958 --     6 C    0.974    48 C    0.968    93 N    0.957
                            94 N    0.938
    48   6 C    3.880 --    49 C    1.686    50 N    1.196    47 C    0.968
    49   8 C    1.961 --    48 C    1.686    50 N    0.171
    50   7 N    3.231 --    48 C    1.196    96 N    0.915    95 N    0.905
                            49 C    0.171
    51   1 N    0.909 --     1 N    0.782
    52   1 N    0.982 --     2 C    0.933
    53   1 N    0.931 --     5 N    0.882
    54   1 N    0.972 --     6 C    0.925
    55   1 N    0.984 --     8 C    0.938
    56   1 N    0.939 --    10 N    0.886
    57   1 N    0.987 --    11 C    0.935
    58   1 N    0.985 --    11 C    0.944
    59   1 N    0.983 --    14 C    0.937
    60   1 N    0.980 --    17 C    0.946
    61   1 N    0.984 --    19 C    0.958
    62   1 N    0.986 --    19 C    0.951
    63   1 N    0.987 --    20 C    0.938
    64   1 N    0.924 --    21 N    0.895
    65   1 N    0.987 --    22 C    0.951
    66   1 N    0.992 --    22 C    0.942
    67   1 N    0.994 --    24 C    0.955
    68   1 N    0.988 --    24 C    0.956
    69   1 N    0.976 --    25 C    0.917
    70   1 N    0.925 --    27 N    0.870
    71   1 N    0.989 --    28 C    0.953
    72   1 N    0.993 --    28 C    0.949
    73   1 N    0.988 --    30 C    0.955
    74   1 N    0.992 --    30 C    0.957
    75   1 N    0.982 --    31 C    0.939
    76   1 N    0.918 --    34 N    0.883
    77   1 N    0.993 --    35 C    0.956
    78   1 N    0.983 --    35 C    0.949
    79   1 N    0.990 --    36 C    0.967
    80   1 N    0.985 --    36 C    0.965
    81   1 N    0.994 --    36 C    0.965
    82   1 N    0.980 --    38 C    0.938
    83   1 N    0.986 --    38 C    0.950
    84   1 N    0.934 --    42 N    0.909
    85   1 N    0.938 --    42 N    0.913
    86   1 N    0.990 --    43 C    0.949
    87   1 N    0.992 --    43 C    0.952
    88   1 N    0.978 --    44 C    0.942
    89   1 N    0.990 --    44 C    0.959
    90   1 N    0.988 --    46 C    0.968
    91   1 N    0.991 --    46 C    0.973
    92   1 N    0.987 --    46 C    0.968
    93   1 N    0.992 --    47 C    0.957
    94   1 N    0.979 --    47 C    0.938
    95   1 N    0.927 --    50 N    0.905
    96   1 N    0.942 --    50 N    0.915
 ---------------------------------------------------------------------------

Topologies differ in total number of bonds
Writing topology from bond orders to xtbtopo.mol

Atomic dipole moments (in atomic units):
---------------------------------------------------------
     #    Z                 x            y            z
---------------------------------------------------------
           total     2.057789    -5.185637    -3.526481
---------------------------------------------------------
         |total|     6.600106    16.775795 Debye


           -------------------------------------------------
          | TOTAL ENERGY            -3116.637836714901 Eh   |
          | GRADIENT NORM               0.422830697591 Eh/α |
           -------------------------------------------------

------------------------------------------------------------------------
 * finished run on 2026/05/23 at 08:20:00.785     
------------------------------------------------------------------------
 total:
 * wall-time:     0 d,  0 h,  0 min, 11.763 sec
 *  cpu-time:     0 d,  0 h,  0 min, 32.544 sec
 * ratio c/w:     2.767 speedup
 SCF:
 * wall-time:     0 d,  0 h,  0 min, 11.497 sec
 *  cpu-time:     0 d,  0 h,  0 min, 32.261 sec
 * ratio c/w:     2.806 speedup

normal termination of xtb
