      -----------------------------------------------------------      
     |                   =====================                   |     
     |                           x T B                           |     
     |                   =====================                   |     
     |                         S. Grimme                         |     
     |          Mulliken Center for Theoretical Chemistry        |     
     |                    University of Bonn                     |     
      -----------------------------------------------------------      

   * xtb version 6.7.1 (26dd68d) compiled by 'froitzheim@fs7' on 2026-05-14

   xtb is free software: you can redistribute it and/or modify it under
   the terms of the GNU Lesser General Public License as published by
   the Free Software Foundation, either version 3 of the License, or
   (at your option) any later version.
   
   xtb is distributed in the hope that it will be useful,
   but WITHOUT ANY WARRANTY; without even the implied warranty of
   MERCHANTABILITY or FITNESS FOR A PARTICULAR PURPOSE.  See the
   GNU Lesser General Public License for more details.
   
   Cite this work as:
   * C. Bannwarth, E. Caldeweyher, S. Ehlert, A. Hansen, P. Pracht,
     J. Seibert, S. Spicher, S. Grimme, WIREs Comput. Mol. Sci., 2020, 11,
     e01493. DOI: 10.1002/wcms.1493
   
   for g-xTB:
   * T. Froitzheim, M. Müller, A. Hansen, S. Grimme, ChemRxiv, 2025, preprint.
     DOI: 10.26434/chemrxiv-2025-bjxv
   for GFN2-xTB:
   * C. Bannwarth, S. Ehlert and S. Grimme., J. Chem. Theory Comput., 2019,
     15, 1652-1671. DOI: 10.1021/acs.jctc.8b01176
   for GFN1-xTB:
   * S. Grimme, C. Bannwarth, P. Shushkov, J. Chem. Theory Comput., 2017,
     13, 1989-2009. DOI: 10.1021/acs.jctc.7b00118
   for GFN0-xTB:
   * P. Pracht, E. Caldeweyher, S. Ehlert, S. Grimme, ChemRxiv, 2019, preprint.
     DOI: 10.26434/chemrxiv.8326202.v1
   for GFN-FF:
   * S. Spicher and S. Grimme, Angew. Chem. Int. Ed., 2020, 59, 15665-15673.
     DOI: 10.1002/anie.202004239
   
   for ALPB and GBSA implicit solvation:
   * S. Ehlert, M. Stahn, S. Spicher, S. Grimme, J. Chem. Theory Comput.,
     2021, 17, 4250-4261. DOI: 10.1021/acs.jctc.1c00471
   
   for ddCOSMO and CPCM-X implicit solvation:
   * M. Stahn, S. Ehlert, S. Grimme, J. Phys. Chem. A,
     2023, XX, XXXX-XXXX. DOI: 10.1021/acs.jpca.3c04382
   
   for DFT-D4:
   * E. Caldeweyher, C. Bannwarth and S. Grimme, J. Chem. Phys., 2017,
     147, 034112. DOI: 10.1063/1.4993215
   * E. Caldeweyher, S. Ehlert, A. Hansen, H. Neugebauer, S. Spicher,
     C. Bannwarth and S. Grimme, J. Chem. Phys., 2019, 150, 154122.
     DOI: 10.1063/1.5090222
   * E. Caldeweyher, J.-M. Mewes, S. Ehlert and S. Grimme, Phys. Chem. Chem. Phys.
     2020, 22, 8499-8512. DOI: 10.1039/D0CP00502A
   
   for sTDA-xTB:
   * S. Grimme and C. Bannwarth, J. Chem. Phys., 2016, 145, 054103.
     DOI: 10.1063/1.4959605
   
   in the mass-spec context:
   * V. Asgeirsson, C. Bauer and S. Grimme, Chem. Sci., 2017, 8, 4879.
     DOI: 10.1039/c7sc00601b
   * J. Koopman and S. Grimme, ACS Omega 2019, 4, 12, 15120-15133.
     DOI: 10.1021/acsomega.9b02011
   
   for metadynamics refer to:
   * S. Grimme, J. Chem. Theory Comput., 2019, 155, 2847-2862
     DOI: 10.1021/acs.jctc.9b00143
   
   for SPH calculations refer to:
   * S. Spicher and S. Grimme, J. Chem. Theory Comput., 2021, 17, 1701-1714
     DOI: 10.1021/acs.jctc.0c01306
   
   for ONIOM refer to:
   * C. Plett, A. Katbashev, S. Ehlert, S. Grimme, M. Bursch,
     Phys. Chem. Chem. Phys., 2023, 25, 17860-17868. DOI: 10.1039/D3CP02178E
   
   for DIPRO refer to:
   * J. Kohn, N. Gildemeister, S. Grimme, D. Fazzi, A. Hansen,
     J. Chem. Phys. 159, 144106 (2023). DOI: 10.1063/5.0167484
   
   for PTB refer to:
   * S. Grimme, M. Mueller, A. Hansen, J. Chem. Phys., 2023, 158, 124111.
     DOI: 10.1063/5.0137838
   
   with help from (in alphabetical order)
   P. Atkinson, C. Bannwarth, F. Bohle, G. Brandenburg, E. Caldeweyher,
   M. Checinski, S. Dohm, S. Ehlert, S. Ehrlich, M. Friede, T. Froitzheim,
   I. Gerasimov, C. Hölzer, A. Katbashev, J. Kohn, J. Koopman, C. Lavigne,
   S. Lehtola, F. März, M. Müller, F. Musil, H. Neugebauer, J. Pisarek,
   C. Plett, P. Pracht, F. Pultar, J. Seibert, P. Shushkov, S. Spicher,
   M. Stahn, M. Steiner, T. Strunk, J. Stückrath, T. Rose, and J. Unsleber
   
 * started run on 2026/05/23 at 12:28:46.284     
   ID    Z sym.   atoms
    1    7 N      1, 5, 10, 17, 22, 26, 27, 33, 41
    2    6 C      2, 3, 6-8, 11-14, 16, 18-21, 23, 28-30, 34-39
    3    8 O      4, 9, 15, 24, 25, 31, 32, 40
    4    1 H      42-82

           -------------------------------------------------
          |                Calculation Setup                |
           -------------------------------------------------

          program call               : /home/xchen/software/xtb-6.7.1-gxtb/bin/xtb /home/xchen/Test/benchmark/md_sampled/09_5_0584_0/snap_0044.xyz --charge 0 --gxtb --norestart
          coordinate file            : /home/xchen/Test/benchmark/md_sampled/09_5_0584_0/snap_0044.xyz
          omp threads                :                    48

core increment energy         -1.8448408193529E+03 Eh
dispersion energy              1.6740740660960E-02 Eh
molecular charge               0.0000000000000E+00 e
number of electrons            2.2999999999795E+02 e
number of unpaired electrons   0.0000000000000E+00 e
wavefunction                   restricted
integral cutoff                2.6907767250513E+01 bohr
energy convergence             1.0000000000000E-06 Eh
density convergence            2.0000000000000E-05 e

------------------------------------------------------------
  cycle        total energy    energy error   density error
------------------------------------------------------------
      1     -2032.896406735  -1.8807233E+02   0.0000000E+00
      2     -2033.236654104  -3.4024737E-01   2.2998120E-02
      3     -2033.460274984  -2.2362088E-01   1.8303737E-02
      4     -2033.947876459  -4.8760147E-01   1.4590251E-02
      5     -2033.954700256  -6.8237971E-03   1.0536077E-03
      6     -2033.955274647  -5.7439164E-04   2.4123168E-04
      7     -2033.955329243  -5.4595236E-05   8.1376809E-05
      8     -2033.955332951  -3.7083992E-06   2.0264604E-05
      9     -2033.955333269  -3.1833540E-07   2.8737322E-06
------------------------------------------------------------

electronic energy             -1.8913125465715E+02 Eh
total energy                  -2.0339553332694E+03 Eh

Post processing:
 | Mayer-Wiberg bond orders
 | Molecular Multipole Moments

 total:                                   8.465 sec
 - increment                              0.000 sec (  0%)
 - repulsion                              0.009 sec (  0%)
 - dispersion                             0.223 sec (  2%)
 - coulomb                                0.117 sec (  1%)
 - exchange                               0.007 sec (  0%)
 - hamiltonian                            0.393 sec (  4%)
 - acp                                    0.253 sec (  2%)
 - spin polarization                      0.000 sec (  0%)
 - post processing                        0.096 sec (  1%)
 - scc                                    6.616 sec ( 78%)
 - coulomb gradient                       0.045 sec (  0%)
 - dispersion gradient                    0.031 sec (  0%)
 - exchange gradient                      0.103 sec (  1%)
 - repulsion gradient                     0.004 sec (  0%)
 - acp gradient                           0.275 sec (  3%)
 - hamiltonian gradient                   0.384 sec (  4%)
 - gradient                               0.842 sec (  9%)

         :::::::::::::::::::::::::::::::::::::::::::::::::::::
         ::                     SUMMARY                     ::
         :::::::::::::::::::::::::::::::::::::::::::::::::::::
         :: total energy           -2033.955333269391 Eh    ::
         :: gradient norm              0.353040033604 Eh/a0 ::
         :: HOMO-LUMO gap              9.230506846866 eV    ::
         ::.................................................::
         :: add. restraining           0.000000000000 Eh    ::
         :: total charge              -0.000000000000 e     ::
         :::::::::::::::::::::::::::::::::::::::::::::::::::::

           -------------------------------------------------
          |                Property Printout                |
           -------------------------------------------------

    * Orbital Energies and Occupations
------------------------------------------------------------------
      #    Occupation            Energy/Eh            Energy/eV
------------------------------------------------------------------
      1        2.0000           -1.3606332             -37.0247
    ...           ...                  ...                  ...
    103        2.0000           -0.3986244             -10.8471
    104        2.0000           -0.3945760             -10.7370
    105        2.0000           -0.3852194             -10.4824
    106        2.0000           -0.3843210             -10.4579
    107        2.0000           -0.3803557             -10.3500
    108        2.0000           -0.3798777             -10.3370
    109        2.0000           -0.3741196             -10.1803
    110        2.0000           -0.3710376             -10.0964
    111        2.0000           -0.3693509             -10.0506
    112        2.0000           -0.3658599              -9.9556
    113        2.0000           -0.3613755              -9.8335
    114        2.0000           -0.3517529              -9.5717
    115        2.0000           -0.3493781              -9.5071 (HOMO)
    116                         -0.0101632              -0.2766 (LUMO)
    117                         -0.0028912              -0.0787
    118                          0.0171493               0.4667
    119                          0.0188426               0.5127
    120                          0.0208328               0.5669
    121                          0.0243822               0.6635
    122                          0.0370437               1.0080
    123                          0.0406918               1.1073
    124                          0.1392530               3.7893
    125                          0.1537923               4.1849
    126                          0.1663337               4.5262
    ...                                ...                  ...
    205                          0.7288118              19.8320
------------------------------------------------------------------
               HL-Gap            0.3392149 Eh            9.2305 eV
------------------------------------------------------------------

Atomic charges and shell populations (in atomic units):
------------------------------------------------------
     #    Z                q          p(s)       p(p)
------------------------------------------------------
     1    7 N      -0.329384      1.344831   3.984553
     2    6 C       0.013672      1.109193   2.877135
     3    6 C       0.436781      1.112620   2.450599
     4    8 O      -0.519410      1.850133   4.669277
     5    7 N      -0.356995      1.370875   3.986120
     6    6 C      -0.015814      1.106623   2.909192
     7    6 C       0.432823      1.093221   2.473955
     8    6 C       0.022632      1.127665   2.849703
     9    8 O      -0.537273      1.849771   4.687503
    10    7 N      -0.324134      1.352551   3.971583
    11    6 C      -0.171431      1.130539   3.040892
    12    6 C       0.403217      1.100948   2.495834
    13    6 C      -0.177956      1.129528   3.048428
    14    6 C       0.002894      1.103127   2.893979
    15    8 O      -0.518957      1.856340   4.662617
    16    6 C      -0.191017      1.163863   3.027154
    17    7 N      -0.316347      1.374212   3.942136
    18    6 C      -0.229742      1.172382   3.057361
    19    6 C      -0.095930      1.123112   2.972818
    20    6 C       0.424231      1.113696   2.462073
    21    6 C       0.401569      1.107848   2.490583
    22    7 N      -0.496857      1.441359   4.055499
    23    6 C       0.020852      1.131644   2.847504
    24    8 O      -0.538263      1.855689   4.682573
    25    8 O      -0.507256      1.849542   4.657714
    26    7 N      -0.433421      1.366368   4.067054
    27    7 N      -0.361900      1.367475   3.994425
    28    6 C      -0.181263      1.145639   3.035624
    29    6 C       0.408261      1.100702   2.491037
    30    6 C       0.385745      1.102403   2.511852
    31    8 O      -0.513746      1.854116   4.659630
    32    8 O      -0.538800      1.859424   4.679377
    33    7 N      -0.428512      1.405923   4.022589
    34    6 C      -0.126716      1.130580   2.996135
    35    6 C      -0.236746      1.175371   3.061375
    36    6 C      -0.246784      1.167896   3.078888
    37    6 C      -0.182698      1.139457   3.043241
    38    6 C      -0.189260      1.143666   3.045593
    39    6 C       0.392271      1.103731   2.503998
    40    8 O      -0.528735      1.861497   4.667239
    41    7 N      -0.433872      1.366761   4.067111
    42    1 H       0.289855      0.710145
    43    1 H       0.102980      0.897020
    44    1 H       0.266027      0.733973
    45    1 H       0.133718      0.866282
    46    1 H       0.114449      0.885551
    47    1 H       0.252361      0.747639
    48    1 H       0.104088      0.895912
    49    1 H       0.106734      0.893266
    50    1 H       0.102130      0.897870
    51    1 H       0.083375      0.916625
    52    1 H       0.125747      0.874253
    53    1 H       0.098430      0.901570
    54    1 H       0.076205      0.923795
    55    1 H       0.277254      0.722746
    56    1 H       0.144582      0.855418
    57    1 H       0.112961      0.887039
    58    1 H       0.074142      0.925858
    59    1 H       0.102394      0.897606
    60    1 H       0.228242      0.771758
    61    1 H       0.207054      0.792946
    62    1 H       0.154372      0.845628
    63    1 H       0.264126      0.735874
    64    1 H       0.236860      0.763140
    65    1 H       0.285449      0.714551
    66    1 H       0.117044      0.882956
    67    1 H       0.143766      0.856234
    68    1 H       0.251814      0.748186
    69    1 H       0.270249      0.729751
    70    1 H       0.139185      0.860815
    71    1 H       0.066956      0.933044
    72    1 H       0.092710      0.907290
    73    1 H       0.100700      0.899300
    74    1 H       0.093634      0.906366
    75    1 H       0.099925      0.900075
    76    1 H       0.087629      0.912371
    77    1 H       0.123750      0.876250
    78    1 H       0.092061      0.907939
    79    1 H       0.134560      0.865440
    80    1 H       0.127016      0.872984
    81    1 H       0.262849      0.737151
    82    1 H       0.236893      0.763107
------------------------------------------------------


Wiberg/Mayer (AO) data.
largest (>0.10) Wiberg bond orders for each atom

 ---------------------------------------------------------------------------
     #   Z sym  total        # sym  WBO       # sym  WBO       # sym  WBO
 ---------------------------------------------------------------------------
     1   7 N    3.337 --     7 C    1.227     2 C    0.967    42 O    0.865
                             9 C    0.162
     2   6 C    3.944 --     1 N    0.967     3 C    0.961    34 C    0.958
                            43 O    0.930
     3   6 C    3.850 --     4 C    1.682     5 N    1.123     2 C    0.961
     4   8 C    2.000 --     3 C    1.682     5 N    0.163
     5   7 N    3.284 --     3 C    1.123     6 C    0.979    44 O    0.899
                             4 C    0.163
     6   6 C    3.944 --    37 C    0.987     5 N    0.979    45 O    0.939
                            29 C    0.917
     7   6 C    3.869 --     9 C    1.666     1 N    1.227     8 C    0.899
     8   6 C    3.926 --    11 C    0.981    10 N    0.978    46 O    0.927
                             7 C    0.899
     9   8 C    1.952 --     7 C    1.666     1 N    0.162
    10   7 N    3.352 --    12 C    1.229     8 C    0.978    47 O    0.891
                            15 C    0.165
    11   6 C    3.966 --    13 C    1.032     8 C    0.981    48 O    0.952
                            49 O    0.945
    12   6 C    3.886 --    15 C    1.663    10 N    1.229    14 C    0.918
    13   6 C    3.974 --    11 C    1.032    16 C    0.999    51 O    0.956
                            50 O    0.951
    14   6 C    3.950 --    17 N    0.997    18 C    0.973    52 O    0.936
                            12 C    0.918
    15   8 C    1.950 --    12 C    1.663    10 N    0.165
    16   6 C    3.965 --    13 C    0.999    19 C    0.990    53 O    0.961
                            54 O    0.955
    17   7 N    3.295 --    20 C    1.171    14 C    0.997    55 O    0.887
                            24 C    0.147
    18   6 C    3.953 --    14 C    0.973    56 O    0.952    57 O    0.952
                            21 C    0.934
    19   6 C    3.953 --    22 N    1.038    16 C    0.990    59 O    0.953
                            58 O    0.946
    20   6 C    3.853 --    24 C    1.667    17 N    1.171    23 C    0.932
    21   6 C    3.869 --    25 C    1.717    26 N    1.185    18 C    0.934
    22   7 N    2.960 --    19 C    1.038    61 O    0.937    60 O    0.929
    23   6 C    3.928 --    28 C    0.972    27 N    0.958    62 O    0.932
                            20 C    0.932
    24   8 C    1.947 --    20 C    1.667    17 N    0.147
    25   8 C    1.988 --    21 C    1.717    26 N    0.171
    26   7 N    3.225 --    21 C    1.185    64 O    0.925    63 O    0.905
                            25 C    0.171
    27   7 N    3.309 --    29 C    1.206    23 C    0.958    65 O    0.859
                            31 C    0.172
    28   6 C    3.959 --    30 C    0.982    23 C    0.972    66 O    0.955
                            67 O    0.929
    29   6 C    3.879 --    31 C    1.681    27 N    1.206     6 C    0.917
    30   6 C    3.886 --    32 C    1.652    33 N    1.214    28 C    0.982
    31   8 C    1.964 --    29 C    1.681    27 N    0.172
    32   8 C    1.914 --    30 C    1.652    33 N    0.152
    33   7 N    3.216 --    30 C    1.214    68 O    0.906    69 O    0.903
                            32 C    0.152
    34   6 C    3.965 --    36 C    1.004    35 C    1.001     2 C    0.958
                            70 O    0.939
    35   6 C    3.958 --    34 C    1.001    72 O    0.972    73 O    0.971
                            71 O    0.971
    36   6 C    3.956 --    34 C    1.004    76 O    0.974    74 O    0.971
                            75 O    0.969
    37   6 C    3.967 --    38 C    1.013     6 C    0.987    77 O    0.953
                            78 O    0.937
    38   6 C    3.960 --    37 C    1.013    39 C    0.978    80 O    0.946
                            79 O    0.933
    39   6 C    3.883 --    40 C    1.660    41 N    1.212    38 C    0.978
    40   8 C    1.924 --    39 C    1.660    41 N    0.169
    41   7 N    3.247 --    39 C    1.212    82 O    0.908    81 O    0.906
                            40 C    0.169
    42   1 O    0.916 --     1 N    0.865
    43   1 O    0.989 --     2 C    0.930
    44   1 O    0.929 --     5 N    0.899
    45   1 O    0.982 --     6 C    0.939
    46   1 O    0.987 --     8 C    0.927
    47   1 O    0.936 --    10 N    0.891
    48   1 O    0.989 --    11 C    0.952
    49   1 O    0.989 --    11 C    0.945
    50   1 O    0.990 --    13 C    0.951
    51   1 O    0.993 --    13 C    0.956
    52   1 O    0.984 --    14 C    0.936
    53   1 O    0.990 --    16 C    0.961
    54   1 O    0.994 --    16 C    0.955
    55   1 O    0.923 --    17 N    0.887
    56   1 O    0.979 --    18 C    0.952
    57   1 O    0.987 --    18 C    0.952
    58   1 O    0.995 --    19 C    0.946
    59   1 O    0.990 --    19 C    0.953
    60   1 O    0.948 --    22 N    0.929
    61   1 O    0.957 --    22 N    0.937
    62   1 O    0.976 --    23 C    0.932
    63   1 O    0.930 --    26 N    0.905
    64   1 O    0.944 --    26 N    0.925
    65   1 O    0.919 --    27 N    0.859
    66   1 O    0.986 --    28 C    0.955
    67   1 O    0.979 --    28 C    0.929
    68   1 O    0.937 --    33 N    0.906
    69   1 O    0.927 --    33 N    0.903
    70   1 O    0.981 --    34 C    0.939
    71   1 O    0.996 --    35 C    0.971
    72   1 O    0.991 --    35 C    0.972
    73   1 O    0.990 --    35 C    0.971
    74   1 O    0.991 --    36 C    0.971
    75   1 O    0.990 --    36 C    0.969
    76   1 O    0.992 --    36 C    0.974
    77   1 O    0.985 --    37 C    0.953
    78   1 O    0.992 --    37 C    0.937
    79   1 O    0.982 --    38 C    0.933
    80   1 O    0.984 --    38 C    0.946
    81   1 O    0.931 --    41 N    0.906
    82   1 O    0.944 --    41 N    0.908
 ---------------------------------------------------------------------------

Topologies differ in total number of bonds
Writing topology from bond orders to xtbtopo.mol

Atomic dipole moments (in atomic units):
---------------------------------------------------------
     #    Z                 x            y            z
---------------------------------------------------------
           total    -1.840986     1.429424    -2.406789
---------------------------------------------------------
         |total|     3.350391     8.515844 Debye


           -------------------------------------------------
          | TOTAL ENERGY            -2033.955333269391 Eh   |
          | GRADIENT NORM               0.353040033604 Eh/α |
           -------------------------------------------------

------------------------------------------------------------------------
 * finished run on 2026/05/23 at 12:28:55.398     
------------------------------------------------------------------------
 total:
 * wall-time:     0 d,  0 h,  0 min,  9.112 sec
 *  cpu-time:     0 d,  0 h,  0 min, 20.679 sec
 * ratio c/w:     2.269 speedup
 SCF:
 * wall-time:     0 d,  0 h,  0 min,  8.759 sec
 *  cpu-time:     0 d,  0 h,  0 min, 20.410 sec
 * ratio c/w:     2.330 speedup

normal termination of xtb
