      -----------------------------------------------------------      
     |                   =====================                   |     
     |                           x T B                           |     
     |                   =====================                   |     
     |                         S. Grimme                         |     
     |          Mulliken Center for Theoretical Chemistry        |     
     |                    University of Bonn                     |     
      -----------------------------------------------------------      

   * xtb version 6.7.1 (26dd68d) compiled by 'froitzheim@fs7' on 2026-05-14

   xtb is free software: you can redistribute it and/or modify it under
   the terms of the GNU Lesser General Public License as published by
   the Free Software Foundation, either version 3 of the License, or
   (at your option) any later version.
   
   xtb is distributed in the hope that it will be useful,
   but WITHOUT ANY WARRANTY; without even the implied warranty of
   MERCHANTABILITY or FITNESS FOR A PARTICULAR PURPOSE.  See the
   GNU Lesser General Public License for more details.
   
   Cite this work as:
   * C. Bannwarth, E. Caldeweyher, S. Ehlert, A. Hansen, P. Pracht,
     J. Seibert, S. Spicher, S. Grimme, WIREs Comput. Mol. Sci., 2020, 11,
     e01493. DOI: 10.1002/wcms.1493
   
   for g-xTB:
   * T. Froitzheim, M. Müller, A. Hansen, S. Grimme, ChemRxiv, 2025, preprint.
     DOI: 10.26434/chemrxiv-2025-bjxv
   for GFN2-xTB:
   * C. Bannwarth, S. Ehlert and S. Grimme., J. Chem. Theory Comput., 2019,
     15, 1652-1671. DOI: 10.1021/acs.jctc.8b01176
   for GFN1-xTB:
   * S. Grimme, C. Bannwarth, P. Shushkov, J. Chem. Theory Comput., 2017,
     13, 1989-2009. DOI: 10.1021/acs.jctc.7b00118
   for GFN0-xTB:
   * P. Pracht, E. Caldeweyher, S. Ehlert, S. Grimme, ChemRxiv, 2019, preprint.
     DOI: 10.26434/chemrxiv.8326202.v1
   for GFN-FF:
   * S. Spicher and S. Grimme, Angew. Chem. Int. Ed., 2020, 59, 15665-15673.
     DOI: 10.1002/anie.202004239
   
   for ALPB and GBSA implicit solvation:
   * S. Ehlert, M. Stahn, S. Spicher, S. Grimme, J. Chem. Theory Comput.,
     2021, 17, 4250-4261. DOI: 10.1021/acs.jctc.1c00471
   
   for ddCOSMO and CPCM-X implicit solvation:
   * M. Stahn, S. Ehlert, S. Grimme, J. Phys. Chem. A,
     2023, XX, XXXX-XXXX. DOI: 10.1021/acs.jpca.3c04382
   
   for DFT-D4:
   * E. Caldeweyher, C. Bannwarth and S. Grimme, J. Chem. Phys., 2017,
     147, 034112. DOI: 10.1063/1.4993215
   * E. Caldeweyher, S. Ehlert, A. Hansen, H. Neugebauer, S. Spicher,
     C. Bannwarth and S. Grimme, J. Chem. Phys., 2019, 150, 154122.
     DOI: 10.1063/1.5090222
   * E. Caldeweyher, J.-M. Mewes, S. Ehlert and S. Grimme, Phys. Chem. Chem. Phys.
     2020, 22, 8499-8512. DOI: 10.1039/D0CP00502A
   
   for sTDA-xTB:
   * S. Grimme and C. Bannwarth, J. Chem. Phys., 2016, 145, 054103.
     DOI: 10.1063/1.4959605
   
   in the mass-spec context:
   * V. Asgeirsson, C. Bauer and S. Grimme, Chem. Sci., 2017, 8, 4879.
     DOI: 10.1039/c7sc00601b
   * J. Koopman and S. Grimme, ACS Omega 2019, 4, 12, 15120-15133.
     DOI: 10.1021/acsomega.9b02011
   
   for metadynamics refer to:
   * S. Grimme, J. Chem. Theory Comput., 2019, 155, 2847-2862
     DOI: 10.1021/acs.jctc.9b00143
   
   for SPH calculations refer to:
   * S. Spicher and S. Grimme, J. Chem. Theory Comput., 2021, 17, 1701-1714
     DOI: 10.1021/acs.jctc.0c01306
   
   for ONIOM refer to:
   * C. Plett, A. Katbashev, S. Ehlert, S. Grimme, M. Bursch,
     Phys. Chem. Chem. Phys., 2023, 25, 17860-17868. DOI: 10.1039/D3CP02178E
   
   for DIPRO refer to:
   * J. Kohn, N. Gildemeister, S. Grimme, D. Fazzi, A. Hansen,
     J. Chem. Phys. 159, 144106 (2023). DOI: 10.1063/5.0167484
   
   for PTB refer to:
   * S. Grimme, M. Mueller, A. Hansen, J. Chem. Phys., 2023, 158, 124111.
     DOI: 10.1063/5.0137838
   
   with help from (in alphabetical order)
   P. Atkinson, C. Bannwarth, F. Bohle, G. Brandenburg, E. Caldeweyher,
   M. Checinski, S. Dohm, S. Ehlert, S. Ehrlich, M. Friede, T. Froitzheim,
   I. Gerasimov, C. Hölzer, A. Katbashev, J. Kohn, J. Koopman, C. Lavigne,
   S. Lehtola, F. März, M. Müller, F. Musil, H. Neugebauer, J. Pisarek,
   C. Plett, P. Pracht, F. Pultar, J. Seibert, P. Shushkov, S. Spicher,
   M. Stahn, M. Steiner, T. Strunk, J. Stückrath, T. Rose, and J. Unsleber
   
 * started run on 2026/05/23 at 08:17:42.677     
   ID    Z sym.   atoms
    1    7 N      1, 5, 10, 16, 18, 21, 27, 34, 42, 50
    2    6 C      2, 3, 6-8, 11-14, 17, 19, 20, 22-25, 28-31, 35-38, 40, 43,
                  44, 46-48
    3    8 O      4, 9, 15, 26, 32, 39, 41, 49
    4   16 S      33, 45
    5    1 H      51-96

           -------------------------------------------------
          |                Calculation Setup                |
           -------------------------------------------------

          program call               : /home/xchen/software/xtb-6.7.1-gxtb/bin/xtb /home/xchen/Test/benchmark/md_sampled/02_6_0901_0/snap_0105.xyz --charge 0 --gxtb --norestart
          coordinate file            : /home/xchen/Test/benchmark/md_sampled/02_6_0901_0/snap_0105.xyz
          omp threads                :                    48

core increment energy         -2.8923536237342E+03 Eh
dispersion energy              2.3828707046816E-02 Eh
molecular charge               0.0000000000000E+00 e
number of electrons            2.7599999999751E+02 e
number of unpaired electrons   0.0000000000000E+00 e
wavefunction                   restricted
integral cutoff                2.6907767250513E+01 bohr
energy convergence             1.0000000000000E-06 Eh
density convergence            2.0000000000000E-05 e

------------------------------------------------------------
  cycle        total energy    energy error   density error
------------------------------------------------------------
      1     -3115.411822330  -2.2308203E+02   0.0000000E+00
      2     -3115.828018320  -4.1619599E-01   2.0273316E-02
      3     -3116.090332460  -2.6231414E-01   1.5960570E-02
      4     -3116.636634955  -5.4630250E-01   1.2630540E-02
      5     -3116.645802136  -9.1671813E-03   9.1231963E-04
      6     -3116.646517820  -7.1568385E-04   1.7693578E-04
      7     -3116.646589588  -7.1768182E-05   6.0906374E-05
      8     -3116.646595968  -6.3792557E-06   2.2183821E-05
      9     -3116.646597009  -1.0409927E-06   3.3637288E-06
     10     -3116.646597137  -1.2829591E-07   1.4049681E-06
------------------------------------------------------------

electronic energy             -2.2431680210965E+02 Eh
total energy                  -3.1166465971368E+03 Eh

Post processing:
 | Mayer-Wiberg bond orders
 | Molecular Multipole Moments

 total:                                  14.648 sec
 - increment                              0.000 sec (  0%)
 - repulsion                              0.015 sec (  0%)
 - dispersion                             0.359 sec (  2%)
 - coulomb                                0.173 sec (  1%)
 - exchange                               0.004 sec (  0%)
 - hamiltonian                            0.363 sec (  2%)
 - acp                                    0.387 sec (  2%)
 - spin polarization                      0.000 sec (  0%)
 - post processing                        0.157 sec (  1%)
 - scc                                   12.319 sec ( 84%)
 - coulomb gradient                       0.086 sec (  0%)
 - dispersion gradient                    0.044 sec (  0%)
 - exchange gradient                      0.103 sec (  0%)
 - repulsion gradient                     0.008 sec (  0%)
 - acp gradient                           0.330 sec (  2%)
 - hamiltonian gradient                   0.448 sec (  3%)
 - gradient                               1.019 sec (  6%)

         :::::::::::::::::::::::::::::::::::::::::::::::::::::
         ::                     SUMMARY                     ::
         :::::::::::::::::::::::::::::::::::::::::::::::::::::
         :: total energy           -3116.646597136806 Eh    ::
         :: gradient norm              0.418412048505 Eh/a0 ::
         :: HOMO-LUMO gap              8.721339207368 eV    ::
         ::.................................................::
         :: add. restraining           0.000000000000 Eh    ::
         :: total charge              -0.000000000000 e     ::
         :::::::::::::::::::::::::::::::::::::::::::::::::::::

           -------------------------------------------------
          |                Property Printout                |
           -------------------------------------------------

    * Orbital Energies and Occupations
------------------------------------------------------------------
      #    Occupation            Energy/Eh            Energy/eV
------------------------------------------------------------------
      1        2.0000           -1.3636529             -37.1069
    ...           ...                  ...                  ...
    126        2.0000           -0.3834502             -10.4342
    127        2.0000           -0.3811090             -10.3705
    128        2.0000           -0.3759230             -10.2294
    129        2.0000           -0.3749847             -10.2039
    130        2.0000           -0.3738909             -10.1741
    131        2.0000           -0.3688779             -10.0377
    132        2.0000           -0.3627631              -9.8713
    133        2.0000           -0.3556237              -9.6770
    134        2.0000           -0.3501933              -9.5292
    135        2.0000           -0.3480110              -9.4699
    136        2.0000           -0.3424009              -9.3172
    137        2.0000           -0.3412854              -9.2868
    138        2.0000           -0.3363846              -9.1535 (HOMO)
    139                         -0.0158813              -0.4322 (LUMO)
    140                         -0.0116012              -0.3157
    141                         -0.0001883              -0.0051
    142                          0.0116946               0.3182
    143                          0.0175665               0.4780
    144                          0.0236532               0.6436
    145                          0.0276564               0.7526
    146                          0.0288358               0.7847
    147                          0.0321960               0.8761
    148                          0.0331617               0.9024
    149                          0.0360075               0.9798
    ...                                ...                  ...
    256                          0.8853851              24.0926
------------------------------------------------------------------
               HL-Gap            0.3205033 Eh            8.7213 eV
------------------------------------------------------------------

Atomic charges and shell populations (in atomic units):
-----------------------------------------------------------------
     #    Z                q          p(s)       p(p)       p(d)
-----------------------------------------------------------------
     1    7 N      -0.417322      1.459644   3.957678
     2    6 C       0.006025      1.138372   2.855603
     3    6 C       0.429758      1.111380   2.458862
     4    8 O      -0.488755      1.854537   4.634218
     5    7 N      -0.350470      1.355595   3.994875
     6    6 C      -0.019091      1.117983   2.901108
     7    6 C       0.417234      1.156249   2.426517
     8    6 C       0.017564      1.112281   2.870154
     9    8 O      -0.477515      1.856538   4.620977
    10    7 N      -0.344481      1.355899   3.988582
    11    6 C      -0.160416      1.148913   3.011503
    12    6 C       0.434338      1.102583   2.463078
    13    6 C       0.007003      1.115126   2.877871
    14    6 C       0.005193      1.131207   2.863601
    15    8 O      -0.508700      1.851983   4.656717
    16    7 N      -0.352111      1.538970   3.813141
    17    6 C      -0.075387      1.141979   2.933407
    18    7 N      -0.306815      1.359750   3.947065
    19    6 C      -0.170419      1.148702   3.021717
    20    6 C       0.101464      1.115041   2.783495
    21    7 N      -0.258532      1.371378   3.887154
    22    6 C      -0.082919      1.125684   2.957235
    23    6 C       0.437298      1.096340   2.466362
    24    6 C      -0.198458      1.163677   3.034781
    25    6 C       0.012386      1.113897   2.873717
    26    8 O      -0.496326      1.846651   4.649675
    27    7 N      -0.365532      1.373401   3.992131
    28    6 C      -0.156432      1.143854   3.012578
    29    6 C       0.402481      1.115999   2.481520
    30    6 C      -0.116650      1.186008   2.930642
    31    6 C       0.009731      1.098998   2.891271
    32    8 O      -0.515460      1.858903   4.656556
    33   16 S      -0.229206      1.905449   4.265637   0.058121
    34    7 N      -0.297696      1.346324   3.951373
    35    6 C      -0.158839      1.138619   3.020220
    36    6 C      -0.204940      1.193061   3.011879
    37    6 C       0.387058      1.113143   2.499799
    38    6 C      -0.178480      1.149219   3.029261
    39    8 O      -0.571561      1.858951   4.712610
    40    6 C       0.402849      1.093104   2.504048
    41    8 O      -0.551921      1.857127   4.694794
    42    7 N      -0.416619      1.361079   4.055540
    43    6 C      -0.167845      1.145591   3.022254
    44    6 C      -0.120330      1.161135   2.959195
    45   16 S      -0.200267      1.869862   4.251520   0.078884
    46    6 C      -0.189398      1.186285   3.003113
    47    6 C      -0.202171      1.174183   3.027988
    48    6 C       0.392714      1.097680   2.509606
    49    8 O      -0.515772      1.854700   4.661072
    50    7 N      -0.409813      1.384013   4.025800
    51    1 H       0.257355      0.742645
    52    1 H       0.111936      0.888064
    53    1 H       0.238703      0.761297
    54    1 H       0.151340      0.848660
    55    1 H       0.134120      0.865880
    56    1 H       0.285013      0.714987
    57    1 H       0.115704      0.884296
    58    1 H       0.132483      0.867517
    59    1 H       0.149461      0.850539
    60    1 H       0.162673      0.837327
    61    1 H       0.109062      0.890938
    62    1 H       0.120338      0.879662
    63    1 H       0.125302      0.874698
    64    1 H       0.272837      0.727163
    65    1 H       0.106482      0.893518
    66    1 H       0.104324      0.895676
    67    1 H       0.106671      0.893329
    68    1 H       0.084622      0.915378
    69    1 H       0.154467      0.845533
    70    1 H       0.260274      0.739726
    71    1 H       0.114616      0.885384
    72    1 H       0.070579      0.929421
    73    1 H       0.129710      0.870290
    74    1 H       0.107055      0.892945
    75    1 H       0.140383      0.859617
    76    1 H       0.286738      0.713262
    77    1 H       0.109763      0.890237
    78    1 H       0.149825      0.850175
    79    1 H       0.116272      0.883728
    80    1 H       0.114134      0.885866
    81    1 H       0.088902      0.911098
    82    1 H       0.110673      0.889327
    83    1 H       0.098432      0.901568
    84    1 H       0.257296      0.742704
    85    1 H       0.252466      0.747534
    86    1 H       0.118709      0.881291
    87    1 H       0.098792      0.901208
    88    1 H       0.142169      0.857831
    89    1 H       0.106049      0.893951
    90    1 H       0.100582      0.899418
    91    1 H       0.081599      0.918401
    92    1 H       0.087693      0.912307
    93    1 H       0.089411      0.910589
    94    1 H       0.158269      0.841731
    95    1 H       0.263847      0.736153
    96    1 H       0.236422      0.763578
-----------------------------------------------------------------


Wiberg/Mayer (AO) data.
largest (>0.10) Wiberg bond orders for each atom

 ---------------------------------------------------------------------------
     #   Z sym  total        # sym  WBO       # sym  WBO       # sym  WBO
 ---------------------------------------------------------------------------
     1   7 N    3.140 --     7 C    1.030     2 C    0.974    51 N    0.882
                             9 C    0.123
     2   6 C    3.933 --    43 C    0.986     1 N    0.974    52 N    0.930
                             3 C    0.917
     3   6 C    3.854 --     4 C    1.727     5 N    1.121     2 C    0.917
     4   8 C    2.005 --     3 C    1.727     5 N    0.155
     5   7 N    3.300 --     3 C    1.121     6 C    1.017    53 N    0.898
                             4 C    0.155
     6   6 C    3.935 --     5 N    1.017    47 C    0.977    54 N    0.923
                            37 C    0.881
     7   6 C    3.819 --     9 C    1.779     1 N    1.030     8 C    0.918
     8   6 C    3.938 --    11 C    1.003    10 N    0.954    55 N    0.932
                             7 C    0.918
     9   8 C    2.025 --     7 C    1.779     1 N    0.123
    10   7 N    3.284 --    12 C    1.164     8 C    0.954    56 N    0.877
                            15 C    0.155
    11   6 C    3.953 --     8 C    1.003    13 C    0.970    57 N    0.952
                            58 N    0.950
    12   6 C    3.858 --    15 C    1.715    10 N    1.164    14 C    0.899
    13   6 C    3.943 --    17 C    1.606    16 N    1.200    11 C    0.970
    14   6 C    3.924 --    19 C    1.014    18 N    0.943    59 N    0.930
                            12 C    0.899
    15   8 C    1.993 --    12 C    1.715    10 N    0.155
    16   7 N    3.026 --    20 C    1.604    13 C    1.200
    17   6 C    3.905 --    13 C    1.606    21 N    1.185    60 N    0.935
    18   7 N    3.312 --    23 C    1.121    22 C    0.965    14 C    0.943
                            26 C    0.154
    19   6 C    3.960 --    14 C    1.014    24 C    0.976    61 N    0.959
                            62 N    0.956
    20   6 C    3.919 --    16 N    1.604    21 N    1.215    63 N    0.939
    21   7 N    3.477 --    20 C    1.215    17 C    1.185    64 N    0.890
    22   6 C    3.936 --    24 C    1.010    18 N    0.965    65 N    0.956
                            66 N    0.950
    23   6 C    3.861 --    26 C    1.730    18 N    1.121    25 C    0.925
    24   6 C    3.961 --    22 C    1.010    19 C    0.976    68 N    0.968
                            67 N    0.965
    25   6 C    3.933 --    28 C    0.996    27 N    0.960    23 C    0.925
                            69 N    0.923
    26   8 C    2.008 --    23 C    1.730    18 N    0.154
    27   7 N    3.282 --    29 C    1.173    25 C    0.960    70 N    0.889
                            32 C    0.157
    28   6 C    3.967 --    30 C    1.010    25 C    0.996    72 N    0.948
                            71 N    0.946
    29   6 C    3.867 --    32 C    1.682    27 N    1.173    31 C    0.927
    30   6 C    3.930 --    28 C    1.010    33 O    0.968    74 N    0.958
                            73 N    0.950
    31   6 C    3.931 --    35 C    0.981    34 N    0.966    75 N    0.934
                            29 C    0.927
    32   8 C    1.956 --    29 C    1.682    27 N    0.157
    33  16 O    2.050 --    36 C    0.993    30 C    0.968
    34   7 N    3.398 --    37 C    1.307    31 C    0.966    76 N    0.872
                            39 C    0.169
    35   6 C    3.945 --    38 C    1.007    31 C    0.981    77 N    0.944
                            78 N    0.936
    36   6 C    3.924 --    33 O    0.993    81 N    0.973    80 N    0.971
                            79 N    0.968
    37   6 C    3.876 --    39 C    1.594    34 N    1.307     6 C    0.881
    38   6 C    3.965 --    35 C    1.007    40 C    0.981    83 N    0.948
                            82 N    0.932
    39   8 C    1.890 --    37 C    1.594    34 N    0.169
    40   6 C    3.881 --    41 C    1.639    42 N    1.231    38 C    0.981
    41   8 C    1.917 --    40 C    1.639    42 N    0.166
    42   7 N    3.258 --    40 C    1.231    84 N    0.912    85 N    0.911
                            41 C    0.166
    43   6 C    3.963 --    44 C    1.004     2 C    0.986    87 N    0.956
                            86 N    0.951
    44   6 C    3.936 --    43 C    1.004    45 O    1.000    89 N    0.952
                            88 N    0.941
    45  16 O    2.109 --    46 C    1.002    44 C    1.000
    46   6 C    3.932 --    45 O    1.002    91 N    0.972    90 N    0.970
                            92 N    0.966
    47   6 C    3.952 --     6 C    0.977    93 N    0.962    94 N    0.942
                            48 C    0.941
    48   6 C    3.881 --    49 C    1.678    50 N    1.232    47 C    0.941
    49   8 C    1.954 --    48 C    1.678    50 N    0.165
    50   7 N    3.256 --    48 C    1.232    96 N    0.918    95 N    0.902
                            49 C    0.165
    51   1 N    0.934 --     1 N    0.882
    52   1 N    0.987 --     2 C    0.930
    53   1 N    0.943 --     5 N    0.898
    54   1 N    0.977 --     6 C    0.923
    55   1 N    0.982 --     8 C    0.932
    56   1 N    0.919 --    10 N    0.877
    57   1 N    0.987 --    11 C    0.952
    58   1 N    0.982 --    11 C    0.950
    59   1 N    0.978 --    14 C    0.930
    60   1 N    0.974 --    17 C    0.935
    61   1 N    0.988 --    19 C    0.959
    62   1 N    0.986 --    19 C    0.956
    63   1 N    0.984 --    20 C    0.939
    64   1 N    0.926 --    21 N    0.890
    65   1 N    0.989 --    22 C    0.956
    66   1 N    0.989 --    22 C    0.950
    67   1 N    0.989 --    24 C    0.965
    68   1 N    0.993 --    24 C    0.968
    69   1 N    0.976 --    25 C    0.923
    70   1 N    0.932 --    27 N    0.889
    71   1 N    0.987 --    28 C    0.946
    72   1 N    0.995 --    28 C    0.948
    73   1 N    0.983 --    30 C    0.950
    74   1 N    0.989 --    30 C    0.958
    75   1 N    0.980 --    31 C    0.934
    76   1 N    0.918 --    34 N    0.872
    77   1 N    0.988 --    35 C    0.944
    78   1 N    0.978 --    35 C    0.936
    79   1 N    0.986 --    36 C    0.968
    80   1 N    0.987 --    36 C    0.971
    81   1 N    0.992 --    36 C    0.973
    82   1 N    0.988 --    38 C    0.932
    83   1 N    0.990 --    38 C    0.948
    84   1 N    0.934 --    42 N    0.912
    85   1 N    0.936 --    42 N    0.911
    86   1 N    0.986 --    43 C    0.951
    87   1 N    0.990 --    43 C    0.956
    88   1 N    0.980 --    44 C    0.941
    89   1 N    0.989 --    44 C    0.952
    90   1 N    0.990 --    46 C    0.970
    91   1 N    0.993 --    46 C    0.972
    92   1 N    0.992 --    46 C    0.966
    93   1 N    0.992 --    47 C    0.962
    94   1 N    0.975 --    47 C    0.942
    95   1 N    0.930 --    50 N    0.902
    96   1 N    0.944 --    50 N    0.918
 ---------------------------------------------------------------------------

Topologies differ in total number of bonds
Writing topology from bond orders to xtbtopo.mol

Atomic dipole moments (in atomic units):
---------------------------------------------------------
     #    Z                 x            y            z
---------------------------------------------------------
           total     2.716496    -4.962310    -2.475370
---------------------------------------------------------
         |total|     6.175056    15.695428 Debye


           -------------------------------------------------
          | TOTAL ENERGY            -3116.646597136806 Eh   |
          | GRADIENT NORM               0.418412048505 Eh/α |
           -------------------------------------------------

------------------------------------------------------------------------
 * finished run on 2026/05/23 at 08:17:58.166     
------------------------------------------------------------------------
 total:
 * wall-time:     0 d,  0 h,  0 min, 15.488 sec
 *  cpu-time:     0 d,  0 h,  0 min, 25.258 sec
 * ratio c/w:     1.631 speedup
 SCF:
 * wall-time:     0 d,  0 h,  0 min, 15.098 sec
 *  cpu-time:     0 d,  0 h,  0 min, 24.951 sec
 * ratio c/w:     1.653 speedup

normal termination of xtb
