      -----------------------------------------------------------      
     |                   =====================                   |     
     |                           x T B                           |     
     |                   =====================                   |     
     |                         S. Grimme                         |     
     |          Mulliken Center for Theoretical Chemistry        |     
     |                    University of Bonn                     |     
      -----------------------------------------------------------      

   * xtb version 6.7.1 (edcfbbe) compiled by 'albert@albert-system' on 2024-07-22

   xtb is free software: you can redistribute it and/or modify it under
   the terms of the GNU Lesser General Public License as published by
   the Free Software Foundation, either version 3 of the License, or
   (at your option) any later version.
   
   xtb is distributed in the hope that it will be useful,
   but WITHOUT ANY WARRANTY; without even the implied warranty of
   MERCHANTABILITY or FITNESS FOR A PARTICULAR PURPOSE.  See the
   GNU Lesser General Public License for more details.
   
   Cite this work as:
   * C. Bannwarth, E. Caldeweyher, S. Ehlert, A. Hansen, P. Pracht,
     J. Seibert, S. Spicher, S. Grimme, WIREs Comput. Mol. Sci., 2020, 11,
     e01493. DOI: 10.1002/wcms.1493
   
   for GFN2-xTB:
   * C. Bannwarth, S. Ehlert and S. Grimme., J. Chem. Theory Comput., 2019,
     15, 1652-1671. DOI: 10.1021/acs.jctc.8b01176
   for GFN1-xTB:
   * S. Grimme, C. Bannwarth, P. Shushkov, J. Chem. Theory Comput., 2017,
     13, 1989-2009. DOI: 10.1021/acs.jctc.7b00118
   for GFN0-xTB:
   * P. Pracht, E. Caldeweyher, S. Ehlert, S. Grimme, ChemRxiv, 2019, preprint.
     DOI: 10.26434/chemrxiv.8326202.v1
   for GFN-FF:
   * S. Spicher and S. Grimme, Angew. Chem. Int. Ed., 2020, 59, 15665-15673.
     DOI: 10.1002/anie.202004239
   
   for ALPB and GBSA implicit solvation:
   * S. Ehlert, M. Stahn, S. Spicher, S. Grimme, J. Chem. Theory Comput.,
     2021, 17, 4250-4261. DOI: 10.1021/acs.jctc.1c00471
   
   for ddCOSMO and CPCM-X implicit solvation:
   * M. Stahn, S. Ehlert, S. Grimme, J. Phys. Chem. A,
     2023, XX, XXXX-XXXX. DOI: 10.1021/acs.jpca.3c04382
   
   for DFT-D4:
   * E. Caldeweyher, C. Bannwarth and S. Grimme, J. Chem. Phys., 2017,
     147, 034112. DOI: 10.1063/1.4993215
   * E. Caldeweyher, S. Ehlert, A. Hansen, H. Neugebauer, S. Spicher,
     C. Bannwarth and S. Grimme, J. Chem. Phys., 2019, 150, 154122.
     DOI: 10.1063/1.5090222
   * E. Caldeweyher, J.-M. Mewes, S. Ehlert and S. Grimme, Phys. Chem. Chem. Phys.
     2020, 22, 8499-8512. DOI: 10.1039/D0CP00502A
   
   for sTDA-xTB:
   * S. Grimme and C. Bannwarth, J. Chem. Phys., 2016, 145, 054103.
     DOI: 10.1063/1.4959605
   
   in the mass-spec context:
   * V. Asgeirsson, C. Bauer and S. Grimme, Chem. Sci., 2017, 8, 4879.
     DOI: 10.1039/c7sc00601b
   * J. Koopman and S. Grimme, ACS Omega 2019, 4, 12, 15120-15133.
     DOI: 10.1021/acsomega.9b02011
   
   for metadynamics refer to:
   * S. Grimme, J. Chem. Theory Comput., 2019, 155, 2847-2862
     DOI: 10.1021/acs.jctc.9b00143
   
   for SPH calculations refer to:
   * S. Spicher and S. Grimme, J. Chem. Theory Comput., 2021, 17, 1701-1714
     DOI: 10.1021/acs.jctc.0c01306
   
   for ONIOM refer to:
   * C. Plett, A. Katbashev, S. Ehlert, S. Grimme, M. Bursch,
     Phys. Chem. Chem. Phys., 2023, 25, 17860-17868. DOI: 10.1039/D3CP02178E
   
   for DIPRO refer to:
   * J. Kohn, N. Gildemeister, S. Grimme, D. Fazzi, A. Hansen,
     J. Chem. Phys., 2023, just accepted.
   
   for PTB refer to:
   * S. Grimme, M. Mueller, A. Hansen, J. Chem. Phys., 2023, 158, 124111.
     DOI: 10.1063/5.0137838
   
   with help from (in alphabetical order)
   P. Atkinson, C. Bannwarth, F. Bohle, G. Brandenburg, E. Caldeweyher
   M. Checinski, S. Dohm, S. Ehlert, S. Ehrlich, I. Gerasimov, C. Hölzer
   A. Katbashev, J. Kohn, J. Koopman, C. Lavigne, S. Lehtola, F. März, M. Müller,
   F. Musil, H. Neugebauer, J. Pisarek, C. Plett, P. Pracht, F. Pultar,
   J. Seibert, P. Shushkov, S. Spicher, M. Stahn, M. Steiner, T. Strunk,
   J. Stückrath, T. Rose, and J. Unsleber
   
 * started run on 2026/05/23 at 08:15:29.707     
   ID    Z sym.   atoms
    1    7 N      1, 5, 10, 17, 23, 28, 35
    2    6 C      2, 3, 6-8, 11-14, 16, 20, 21, 24-26, 29, 31-34, 36-40
    3    8 O      4, 9, 15, 18, 19, 22, 27, 30
    4    1 H      41-70

           -------------------------------------------------
          |                Calculation Setup                |
           -------------------------------------------------

          program call               : /home/xchen/software/xtb-6.7.1/xtb-dist/bin/xtb /home/xchen/Test/benchmark/md_sampled/01_6_0109_n1/snap_0088.xyz --charge -1 --gfn 2 --norestart
          coordinate file            : /home/xchen/Test/benchmark/md_sampled/01_6_0109_n1/snap_0088.xyz
          omp threads                :                    48


           -------------------------------------------------
          |                 G F N 2 - x T B                 |
           -------------------------------------------------

        Reference                      10.1021/acs.jctc.8b01176
      * Hamiltonian:
        H0-scaling (s, p, d)           1.850000    2.230000    2.230000
        zeta-weighting                 0.500000
      * Dispersion:
        s8                             2.700000
        a1                             0.520000
        a2                             5.000000
        s9                             5.000000
      * Repulsion:
        kExp                           1.500000    1.000000
        rExp                           1.000000
      * Coulomb:
        alpha                          2.000000
        third order                    shell-resolved
        anisotropic                    true
        a3                             3.000000
        a5                             4.000000
        cn-shift                       1.200000
        cn-exp                         4.000000
        max-rad                        5.000000


          ...................................................
          :                      SETUP                      :
          :.................................................:
          :  # basis functions                 190          :
          :  # atomic orbitals                 190          :
          :  # shells                          110          :
          :  # electrons                       214          :
          :  max. iterations                   250          :
          :  Hamiltonian                  GFN2-xTB          :
          :  restarted?                      false          :
          :  GBSA solvation                  false          :
          :  PC potential                    false          :
          :  electronic temp.          300.0000000     K    :
          :  accuracy                    1.0000000          :
          :  -> integral cutoff          0.2500000E+02      :
          :  -> integral neglect         0.1000000E-07      :
          :  -> SCF convergence          0.1000000E-05 Eh   :
          :  -> wf. convergence          0.1000000E-03 e    :
          :  Broyden damping             0.4000000          :
          :  net charge                         -1          :
          :  unpaired electrons                  0          :
          ...................................................

 iter      E             dE          RMSdq      gap      omega  full diag
   1   -123.1042080 -0.123104E+03  0.449E+00    3.17       0.0  T
   2   -123.4637180 -0.359510E+00  0.243E+00    2.35       1.0  T
   3   -123.4834902 -0.197722E-01  0.137E+00    1.09       1.0  T
   4   -123.4007520  0.827382E-01  0.787E-01    0.05       1.0  T
   5   -123.4922223 -0.914703E-01  0.265E-01    1.44       1.0  T
   6   -123.4952700 -0.304776E-02  0.117E-01    1.09       1.0  T
   7   -123.4954813 -0.211306E-03  0.831E-02    0.89       1.0  T
   8   -123.4956316 -0.150256E-03  0.449E-02    0.66       1.0  T
   9   -123.4956913 -0.596975E-04  0.240E-02    0.51       1.0  T
  10   -123.4957085 -0.172488E-04  0.110E-02    0.43       1.1  T
  11   -123.4957134 -0.482312E-05  0.337E-03    0.38       3.5  T
  12   -123.4957135 -0.119954E-06  0.147E-03    0.36       8.1  T
  13   -123.4957136 -0.127575E-06  0.605E-04    0.37      19.8  T
  14   -123.4957136 -0.173202E-07  0.224E-04    0.37      53.3  T

   *** convergence criteria satisfied after 14 iterations ***

         #    Occupation            Energy/Eh            Energy/eV
      -------------------------------------------------------------
         1        2.0000           -0.6448042             -17.5460
       ...           ...                  ...                  ...
       101        2.0000           -0.3145859              -8.5603
       102        2.0000           -0.3123648              -8.4999
       103        2.0000           -0.3111162              -8.4659
       104        2.0000           -0.3009479              -8.1892
       105        2.0000           -0.2275878              -6.1930
       106        2.0000           -0.2184038              -5.9431
       107        1.9984           -0.1963858              -5.3439 (HOMO)
       108        0.0016           -0.1828145              -4.9746 (LUMO)
       109                         -0.1632588              -4.4425
       110                         -0.1599126              -4.3514
       111                         -0.1556700              -4.2360
       112                         -0.1525714              -4.1517
       ...                                ...                  ...
       190                          0.8064931              21.9458
      -------------------------------------------------------------
                  HL-Gap            0.0135714 Eh            0.3693 eV
             Fermi-level           -0.1896002 Eh           -5.1593 eV

 SCC (total)                   0 d,  0 h,  0 min, 15.268 sec
 SCC setup                      ...        0 min,  0.037 sec (  0.243%)
 Dispersion                     ...        0 min,  0.084 sec (  0.548%)
 classical contributions        ...        0 min,  0.024 sec (  0.160%)
 integral evaluation            ...        0 min,  0.303 sec (  1.984%)
 iterations                     ...        0 min, 14.280 sec ( 93.530%)
 molecular gradient             ...        0 min,  0.526 sec (  3.443%)
 printout                       ...        0 min,  0.014 sec (  0.090%)

         :::::::::::::::::::::::::::::::::::::::::::::::::::::
         ::                     SUMMARY                     ::
         :::::::::::::::::::::::::::::::::::::::::::::::::::::
         :: total energy            -122.083868578500 Eh    ::
         :: gradient norm              0.262023225530 Eh/a0 ::
         :: HOMO-LUMO gap              0.369296012747 eV    ::
         ::.................................................::
         :: SCC energy              -123.494388712904 Eh    ::
         :: -> isotropic ES            0.406588166760 Eh    ::
         :: -> anisotropic ES          0.013346396704 Eh    ::
         :: -> anisotropic XC          0.034134596468 Eh    ::
         :: -> dispersion             -0.082517915782 Eh    ::
         :: repulsion energy           1.410520134404 Eh    ::
         :: add. restraining           0.000000000000 Eh    ::
         :: total charge              -1.000000000002 e     ::
         :::::::::::::::::::::::::::::::::::::::::::::::::::::

           -------------------------------------------------
          |                Property Printout                |
           -------------------------------------------------

    * Orbital Energies and Occupations

         #    Occupation            Energy/Eh            Energy/eV
      -------------------------------------------------------------
         1        2.0000           -0.6448042             -17.5460
       ...           ...                  ...                  ...
        95        2.0000           -0.3310370              -9.0080
        96        2.0000           -0.3290172              -8.9530
        97        2.0000           -0.3270302              -8.8989
        98        2.0000           -0.3254671              -8.8564
        99        2.0000           -0.3199766              -8.7070
       100        2.0000           -0.3187215              -8.6729
       101        2.0000           -0.3145859              -8.5603
       102        2.0000           -0.3123648              -8.4999
       103        2.0000           -0.3111162              -8.4659
       104        2.0000           -0.3009479              -8.1892
       105        2.0000           -0.2275878              -6.1930
       106        2.0000           -0.2184038              -5.9431
       107        1.9984           -0.1963858              -5.3439 (HOMO)
       108        0.0016           -0.1828145              -4.9746 (LUMO)
       109                         -0.1632588              -4.4425
       110                         -0.1599126              -4.3514
       111                         -0.1556700              -4.2360
       112                         -0.1525714              -4.1517
       113                         -0.1515084              -4.1228
       114                         -0.1467506              -3.9933
       115                         -0.1360313              -3.7016
       116                         -0.1155990              -3.1456
       117                         -0.0293138              -0.7977
       118                         -0.0165099              -0.4493
       ...                                ...                  ...
       190                          0.8064931              21.9458
      -------------------------------------------------------------
                  HL-Gap            0.0135714 Eh            0.3693 eV
             Fermi-level           -0.1896002 Eh           -5.1593 eV

     #   Z          covCN         q      C6AA      α(0)
     1   7 N        2.684    -0.201    25.361     7.479
     2   6 C        3.763    -0.015    20.881     6.514
     3   6 C        2.741     0.282    22.231     7.720
     4   8 O        0.856    -0.418    22.047     6.295
     5   7 N        2.689    -0.196    25.256     7.464
     6   6 C        3.790     0.018    20.283     6.414
     7   6 C        2.766     0.267    22.503     7.769
     8   6 C        3.792     0.014    20.344     6.423
     9   8 O        0.856    -0.441    22.519     6.362
    10   7 N        2.694    -0.136    23.940     7.267
    11   6 C        3.780    -0.055    21.593     6.620
    12   6 C        2.744     0.264    22.539     7.773
    13   6 C        3.796    -0.095    22.316     6.727
    14   6 C        3.726    -0.035    21.309     6.591
    15   8 O        0.856    -0.442    22.546     6.366
    16   6 C        2.676     0.358    20.917     7.484
    17   7 N        2.678    -0.160    24.468     7.346
    18   8 O        0.856    -0.581    25.652     6.791
    19   8 O        0.856    -0.575    25.518     6.773
    20   6 C        2.746     0.262    22.576     7.780
    21   6 C        3.777     0.030    20.087     6.386
    22   8 O        0.858    -0.437    22.424     6.349
    23   7 N        2.684    -0.181    24.917     7.414
    24   6 C        3.754    -0.106    22.590     6.777
    25   6 C        2.747     0.265    22.532     7.773
    26   6 C        3.743    -0.021    21.022     6.541
    27   8 O        0.857    -0.436    22.404     6.346
    28   7 N        2.690    -0.177    24.833     7.401
    29   6 C        2.771     0.276    22.335     7.740
    30   8 O        0.857    -0.437    22.429     6.350
    31   6 C        3.818    -0.064    21.708     6.631
    32   6 C        3.030    -0.024    28.582     8.769
    33   6 C        3.010     0.003    27.938     8.670
    34   6 C        3.146    -0.021    28.257     8.697
    35   7 N        2.762    -0.125    23.721     7.234
    36   6 C        3.060     0.054    26.737     8.480
    37   6 C        2.914    -0.035    28.860     8.809
    38   6 C        2.916    -0.047    29.174     8.857
    39   6 C        2.935    -0.039    28.972     8.828
    40   6 C        2.934    -0.034    28.836     8.807
    41   1 H        0.860     0.193     1.142     1.674
    42   1 H        0.928     0.080     1.976     2.198
    43   1 H        0.924     0.062     2.177     2.307
    44   1 H        0.862     0.199     1.111     1.651
    45   1 H        0.917     0.060     2.200     2.320
    46   1 H        0.925     0.064     2.152     2.294
    47   1 H        0.858     0.203     1.091     1.637
    48   1 H        0.907     0.017     2.787     2.612
    49   1 H        0.926     0.089     1.886     2.148
    50   1 H        0.926     0.009     2.910     2.668
    51   1 H        0.927     0.004     2.993     2.705
    52   1 H        0.920     0.061     2.192     2.316
    53   1 H        0.926     0.075     2.037     2.232
    54   1 H        0.853     0.180     1.213     1.726
    55   1 H        0.919     0.070     2.085     2.258
    56   1 H        0.857     0.171     1.270     1.766
    57   1 H        0.919     0.045     2.380     2.413
    58   1 H        0.925     0.057     2.238     2.340
    59   1 H        0.923     0.058     2.226     2.333
    60   1 H        0.922     0.071     2.075     2.253
    61   1 H        0.924     0.072     2.069     2.249
    62   1 H        0.862     0.212     1.045     1.601
    63   1 H        0.926     0.054     2.275     2.358
    64   1 H        0.924     0.060     2.196     2.318
    65   1 H        0.925     0.029     2.604     2.523
    66   1 H        0.858     0.151     1.397     1.852
    67   1 H        0.927     0.035     2.519     2.482
    68   1 H        0.928     0.028     2.619     2.531
    69   1 H        0.925     0.022     2.698     2.569
    70   1 H        0.914     0.011     2.878     2.654

 Mol. C6AA /au·bohr⁶  :      56249.171195
 Mol. C8AA /au·bohr⁸  :    1292342.359674
 Mol. α(0) /au        :        359.799890


Wiberg/Mayer (AO) data.
largest (>0.10) Wiberg bond orders for each atom

 ---------------------------------------------------------------------------
     #   Z sym  total        # sym  WBO       # sym  WBO       # sym  WBO
 ---------------------------------------------------------------------------
     1   7 N    3.376 --     7 C    1.209     2 C    0.996    41 H    0.919
                             9 O    0.169
     2   6 C    3.970 --     1 N    0.996    42 H    0.961    43 H    0.957
                             3 C    0.943
     3   6 C    3.950 --     4 O    1.704     5 N    1.225     2 C    0.943
     4   8 O    2.033 --     3 C    1.704     5 N    0.197
     5   7 N    3.420 --     3 C    1.225     6 C    0.987    44 H    0.934
                             4 O    0.197
     6   6 C    3.968 --     5 N    0.987    31 C    0.965    45 H    0.954
                            29 C    0.926
     7   6 C    3.948 --     9 O    1.683     1 N    1.209     8 C    0.964
     8   6 C    3.956 --    10 N    0.981     7 C    0.964    46 H    0.950
                            11 C    0.923
     9   8 O    1.997 --     7 C    1.683     1 N    0.169
    10   7 N    3.509 --    12 C    1.348     8 C    0.981    47 H    0.910
                            15 O    0.206
    11   6 C    3.966 --    13 C    1.020    48 H    0.973    49 H    0.962
                             8 C    0.923
    12   6 C    3.953 --    15 O    1.653    10 N    1.348    14 C    0.893
    13   6 C    3.962 --    11 C    1.020    51 H    0.982    50 H    0.959
                            16 C    0.847
    14   6 C    3.947 --    17 N    0.978    53 H    0.964    52 H    0.964
                            12 C    0.893
    15   8 O    1.994 --    12 C    1.653    10 N    0.206
    16   6 C    3.944 --    19 O    1.544    18 O    1.532    13 C    0.847
    17   7 N    3.469 --    20 C    1.294    14 C    0.978    54 H    0.931
                            22 O    0.207
    18   8 O    1.853 --    16 C    1.532    19 O    0.236
    19   8 O    1.866 --    16 C    1.544    18 O    0.236
    20   6 C    3.950 --    22 O    1.678    17 N    1.294    21 C    0.897
    21   6 C    3.955 --    24 C    1.025    23 N    0.955    55 H    0.953
                            20 C    0.897
    22   8 O    2.010 --    20 C    1.678    17 N    0.207
    23   7 N    3.432 --    25 C    1.263    21 C    0.955    56 H    0.937
                            27 O    0.193
    24   6 C    3.987 --    21 C    1.025    58 H    0.979    59 H    0.976
                            57 H    0.975
    25   6 C    3.949 --    27 O    1.691    23 N    1.263    26 C    0.931
    26   6 C    3.976 --    28 N    1.006    60 H    0.963    61 H    0.961
                            25 C    0.931
    27   8 O    2.007 --    25 C    1.691    23 N    0.193
    28   7 N    3.430 --    29 C    1.250    26 C    1.006    62 H    0.922
                            30 O    0.190
    29   6 C    3.951 --    30 O    1.692    28 N    1.250     6 C    0.926
    30   8 O    2.003 --    29 C    1.692    28 N    0.190
    31   6 C    3.991 --    32 C    1.017     6 C    0.965    63 H    0.965
                            64 H    0.964
    32   6 C    3.977 --    33 C    1.634    34 C    1.158    31 C    1.017
    33   6 C    3.953 --    32 C    1.634    35 N    1.171    65 H    0.967
    34   6 C    3.982 --    37 C    1.305    36 C    1.294    32 C    1.158
    35   7 N    3.497 --    33 C    1.171    36 C    1.142    66 H    0.949
    36   6 C    3.959 --    38 C    1.337    34 C    1.294    35 N    1.142
    37   6 C    3.988 --    39 C    1.542    34 C    1.305    67 H    0.967
                            38 C    0.105
    38   6 C    3.990 --    40 C    1.508    36 C    1.337    68 H    0.969
                            37 C    0.105
    39   6 C    3.989 --    37 C    1.542    40 C    1.337    69 H    0.970
    40   6 C    3.985 --    38 C    1.508    39 C    1.337    70 H    0.968
    41   1 H    0.963 --     1 N    0.919
    42   1 H    0.993 --     2 C    0.961
    43   1 H    0.996 --     2 C    0.957
    44   1 H    0.960 --     5 N    0.934
    45   1 H    0.996 --     6 C    0.954
    46   1 H    0.996 --     8 C    0.950
    47   1 H    0.959 --    10 N    0.910
    48   1 H    1.000 --    11 C    0.973
    49   1 H    0.992 --    11 C    0.962
    50   1 H    1.000 --    13 C    0.959
    51   1 H    1.000 --    13 C    0.982
    52   1 H    0.996 --    14 C    0.964
    53   1 H    0.994 --    14 C    0.964
    54   1 H    0.967 --    17 N    0.931
    55   1 H    0.995 --    21 C    0.953
    56   1 H    0.971 --    23 N    0.937
    57   1 H    0.997 --    24 C    0.975
    58   1 H    0.996 --    24 C    0.979
    59   1 H    0.997 --    24 C    0.976
    60   1 H    0.995 --    26 C    0.963
    61   1 H    0.995 --    26 C    0.961
    62   1 H    0.955 --    28 N    0.922
    63   1 H    0.997 --    31 C    0.965
    64   1 H    0.996 --    31 C    0.964
    65   1 H    0.998 --    33 C    0.967
    66   1 H    0.977 --    35 N    0.949
    67   1 H    0.998 --    37 C    0.967
    68   1 H    0.999 --    38 C    0.969
    69   1 H    0.999 --    39 C    0.970
    70   1 H    0.999 --    40 C    0.968
 ---------------------------------------------------------------------------

Topologies differ in total number of bonds
Writing topology from bond orders to xtbtopo.mol

molecular dipole:
                 x           y           z       tot (Debye)
 q only:        3.970       9.440       7.901
   full:        4.082       9.766       7.901      33.573
molecular quadrupole (traceless):
                xx          xy          yy          xz          yz          zz
 q only:       61.187     -54.415     -36.477     -41.058    -129.173     -24.710
  q+dip:       53.553     -56.797     -27.377     -39.400    -135.164     -26.176
   full:       56.632     -56.913     -30.506     -41.033    -133.922     -26.126


           -------------------------------------------------
          | TOTAL ENERGY             -122.083868578500 Eh   |
          | GRADIENT NORM               0.262023225530 Eh/α |
          | HOMO-LUMO GAP               0.369296012747 eV   |
           -------------------------------------------------

------------------------------------------------------------------------
 * finished run on 2026/05/23 at 08:15:45.598     
------------------------------------------------------------------------
 total:
 * wall-time:     0 d,  0 h,  0 min, 15.889 sec
 *  cpu-time:     0 d,  0 h,  0 min, 20.169 sec
 * ratio c/w:     1.269 speedup
 SCF:
 * wall-time:     0 d,  0 h,  0 min, 15.269 sec
 *  cpu-time:     0 d,  0 h,  0 min, 19.563 sec
 * ratio c/w:     1.281 speedup

normal termination of xtb
