      -----------------------------------------------------------      
     |                   =====================                   |     
     |                           x T B                           |     
     |                   =====================                   |     
     |                         S. Grimme                         |     
     |          Mulliken Center for Theoretical Chemistry        |     
     |                    University of Bonn                     |     
      -----------------------------------------------------------      

   * xtb version 6.7.1 (26dd68d) compiled by 'froitzheim@fs7' on 2026-05-14

   xtb is free software: you can redistribute it and/or modify it under
   the terms of the GNU Lesser General Public License as published by
   the Free Software Foundation, either version 3 of the License, or
   (at your option) any later version.
   
   xtb is distributed in the hope that it will be useful,
   but WITHOUT ANY WARRANTY; without even the implied warranty of
   MERCHANTABILITY or FITNESS FOR A PARTICULAR PURPOSE.  See the
   GNU Lesser General Public License for more details.
   
   Cite this work as:
   * C. Bannwarth, E. Caldeweyher, S. Ehlert, A. Hansen, P. Pracht,
     J. Seibert, S. Spicher, S. Grimme, WIREs Comput. Mol. Sci., 2020, 11,
     e01493. DOI: 10.1002/wcms.1493
   
   for g-xTB:
   * T. Froitzheim, M. Müller, A. Hansen, S. Grimme, ChemRxiv, 2025, preprint.
     DOI: 10.26434/chemrxiv-2025-bjxv
   for GFN2-xTB:
   * C. Bannwarth, S. Ehlert and S. Grimme., J. Chem. Theory Comput., 2019,
     15, 1652-1671. DOI: 10.1021/acs.jctc.8b01176
   for GFN1-xTB:
   * S. Grimme, C. Bannwarth, P. Shushkov, J. Chem. Theory Comput., 2017,
     13, 1989-2009. DOI: 10.1021/acs.jctc.7b00118
   for GFN0-xTB:
   * P. Pracht, E. Caldeweyher, S. Ehlert, S. Grimme, ChemRxiv, 2019, preprint.
     DOI: 10.26434/chemrxiv.8326202.v1
   for GFN-FF:
   * S. Spicher and S. Grimme, Angew. Chem. Int. Ed., 2020, 59, 15665-15673.
     DOI: 10.1002/anie.202004239
   
   for ALPB and GBSA implicit solvation:
   * S. Ehlert, M. Stahn, S. Spicher, S. Grimme, J. Chem. Theory Comput.,
     2021, 17, 4250-4261. DOI: 10.1021/acs.jctc.1c00471
   
   for ddCOSMO and CPCM-X implicit solvation:
   * M. Stahn, S. Ehlert, S. Grimme, J. Phys. Chem. A,
     2023, XX, XXXX-XXXX. DOI: 10.1021/acs.jpca.3c04382
   
   for DFT-D4:
   * E. Caldeweyher, C. Bannwarth and S. Grimme, J. Chem. Phys., 2017,
     147, 034112. DOI: 10.1063/1.4993215
   * E. Caldeweyher, S. Ehlert, A. Hansen, H. Neugebauer, S. Spicher,
     C. Bannwarth and S. Grimme, J. Chem. Phys., 2019, 150, 154122.
     DOI: 10.1063/1.5090222
   * E. Caldeweyher, J.-M. Mewes, S. Ehlert and S. Grimme, Phys. Chem. Chem. Phys.
     2020, 22, 8499-8512. DOI: 10.1039/D0CP00502A
   
   for sTDA-xTB:
   * S. Grimme and C. Bannwarth, J. Chem. Phys., 2016, 145, 054103.
     DOI: 10.1063/1.4959605
   
   in the mass-spec context:
   * V. Asgeirsson, C. Bauer and S. Grimme, Chem. Sci., 2017, 8, 4879.
     DOI: 10.1039/c7sc00601b
   * J. Koopman and S. Grimme, ACS Omega 2019, 4, 12, 15120-15133.
     DOI: 10.1021/acsomega.9b02011
   
   for metadynamics refer to:
   * S. Grimme, J. Chem. Theory Comput., 2019, 155, 2847-2862
     DOI: 10.1021/acs.jctc.9b00143
   
   for SPH calculations refer to:
   * S. Spicher and S. Grimme, J. Chem. Theory Comput., 2021, 17, 1701-1714
     DOI: 10.1021/acs.jctc.0c01306
   
   for ONIOM refer to:
   * C. Plett, A. Katbashev, S. Ehlert, S. Grimme, M. Bursch,
     Phys. Chem. Chem. Phys., 2023, 25, 17860-17868. DOI: 10.1039/D3CP02178E
   
   for DIPRO refer to:
   * J. Kohn, N. Gildemeister, S. Grimme, D. Fazzi, A. Hansen,
     J. Chem. Phys. 159, 144106 (2023). DOI: 10.1063/5.0167484
   
   for PTB refer to:
   * S. Grimme, M. Mueller, A. Hansen, J. Chem. Phys., 2023, 158, 124111.
     DOI: 10.1063/5.0137838
   
   with help from (in alphabetical order)
   P. Atkinson, C. Bannwarth, F. Bohle, G. Brandenburg, E. Caldeweyher,
   M. Checinski, S. Dohm, S. Ehlert, S. Ehrlich, M. Friede, T. Froitzheim,
   I. Gerasimov, C. Hölzer, A. Katbashev, J. Kohn, J. Koopman, C. Lavigne,
   S. Lehtola, F. März, M. Müller, F. Musil, H. Neugebauer, J. Pisarek,
   C. Plett, P. Pracht, F. Pultar, J. Seibert, P. Shushkov, S. Spicher,
   M. Stahn, M. Steiner, T. Strunk, J. Stückrath, T. Rose, and J. Unsleber
   
 * started run on 2026/05/23 at 12:52:29.570     
   ID    Z sym.   atoms
    1    7 N      1, 5, 10, 17, 27, 34, 39, 43, 54, 56, 57
    2    6 C      2, 3, 6-8, 11-14, 16, 18, 21-23, 28-31, 33, 35-38, 40,
                  44-48, 50-53, 55, 58
    3    8 O      4, 9, 15, 19, 20, 24-26, 32, 41, 49
    4   16 S      42
    5    1 H      59-117

           -------------------------------------------------
          |                Calculation Setup                |
           -------------------------------------------------

          program call               : /home/xchen/software/xtb-6.7.1-gxtb/bin/xtb /home/xchen/Test/benchmark/md_sampled/04_7_0231_n2/snap_0113.xyz --charge -2 --gxtb --norestart
          coordinate file            : /home/xchen/Test/benchmark/md_sampled/04_7_0231_n2/snap_0113.xyz
          omp threads                :                    48

core increment energy         -2.9312527735450E+03 Eh
dispersion energy              2.2781158374475E-02 Eh
molecular charge              -2.0000000000000E+00 e
number of electrons            3.2799999999710E+02 e
number of unpaired electrons   0.0000000000000E+00 e
wavefunction                   restricted
integral cutoff                2.6907767250513E+01 bohr
energy convergence             1.0000000000000E-06 Eh
density convergence            2.0000000000000E-05 e

------------------------------------------------------------
  cycle        total energy    energy error   density error
------------------------------------------------------------
      1     -3195.858792172  -2.6462880E+02   0.0000000E+00
      2     -3196.361468766  -5.0267659E-01   2.0304389E-02
      3     -3196.682241233  -3.2077247E-01   1.5949995E-02
      4     -3197.359193784  -6.7695255E-01   1.2590766E-02
      5     -3197.369811467  -1.0617683E-02   9.0857030E-04
      6     -3197.370674602  -8.6313538E-04   1.7647134E-04
      7     -3197.370747275  -7.2673351E-05   5.4031992E-05
      8     -3197.370752990  -5.7145683E-06   1.5699384E-05
      9     -3197.370753681  -6.9109171E-07   2.6391196E-06
------------------------------------------------------------

electronic energy             -2.6614076129451E+02 Eh
total energy                  -3.1973707536811E+03 Eh

Post processing:
 | Mayer-Wiberg bond orders
 | Molecular Multipole Moments

 total:                                  33.646 sec
 - increment                              0.000 sec (  0%)
 - repulsion                              0.010 sec (  0%)
 - dispersion                             0.330 sec (  0%)
 - coulomb                                0.262 sec (  0%)
 - exchange                               0.087 sec (  0%)
 - hamiltonian                           20.458 sec ( 60%)
 - acp                                    0.454 sec (  1%)
 - spin polarization                      0.000 sec (  0%)
 - post processing                        0.136 sec (  0%)
 - scc                                   10.942 sec ( 32%)
 - coulomb gradient                       0.109 sec (  0%)
 - dispersion gradient                    0.027 sec (  0%)
 - exchange gradient                      0.120 sec (  0%)
 - repulsion gradient                     0.007 sec (  0%)
 - acp gradient                           0.361 sec (  1%)
 - hamiltonian gradient                   0.469 sec (  1%)
 - gradient                               1.093 sec (  3%)

         :::::::::::::::::::::::::::::::::::::::::::::::::::::
         ::                     SUMMARY                     ::
         :::::::::::::::::::::::::::::::::::::::::::::::::::::
         :: total energy           -3197.370753681140 Eh    ::
         :: gradient norm              0.447698001544 Eh/a0 ::
         :: HOMO-LUMO gap              6.505373319101 eV    ::
         ::.................................................::
         :: add. restraining           0.000000000000 Eh    ::
         :: total charge              -2.000000000000 e     ::
         :::::::::::::::::::::::::::::::::::::::::::::::::::::

           -------------------------------------------------
          |                Property Printout                |
           -------------------------------------------------

    * Orbital Energies and Occupations
------------------------------------------------------------------
      #    Occupation            Energy/Eh            Energy/eV
------------------------------------------------------------------
      1        2.0000           -1.1973170             -32.5807
    ...           ...                  ...                  ...
    152        2.0000           -0.2157645              -5.8713
    153        2.0000           -0.2117955              -5.7632
    154        2.0000           -0.2068273              -5.6281
    155        2.0000           -0.2000660              -5.4441
    156        2.0000           -0.1924165              -5.2359
    157        2.0000           -0.1888450              -5.1387
    158        2.0000           -0.1860344              -5.0623
    159        2.0000           -0.1744879              -4.7481
    160        2.0000           -0.1578380              -4.2950
    161        2.0000           -0.1559545              -4.2437
    162        2.0000           -0.1290698              -3.5122
    163        2.0000           -0.1171901              -3.1889
    164        2.0000           -0.1066138              -2.9011 (HOMO)
    165                          0.1324542               3.6043 (LUMO)
    166                          0.1415205               3.8510
    167                          0.1585191               4.3135
    168                          0.1638097               4.4575
    169                          0.1665713               4.5326
    170                          0.1685302               4.5859
    171                          0.1716549               4.6710
    172                          0.1940343               5.2799
    173                          0.2068549               5.6288
    174                          0.2119415               5.7672
    175                          0.2403924               6.5414
    ...                                ...                  ...
    296                          0.9441211              25.6908
------------------------------------------------------------------
               HL-Gap            0.2390681 Eh            6.5054 eV
------------------------------------------------------------------

Atomic charges and shell populations (in atomic units):
-----------------------------------------------------------------
     #    Z                q          p(s)       p(p)       p(d)
-----------------------------------------------------------------
     1    7 N      -0.333271      1.345796   3.987475
     2    6 C       0.003537      1.131768   2.864695
     3    6 C       0.418667      1.109234   2.472099
     4    8 O      -0.564208      1.856491   4.707717
     5    7 N      -0.304152      1.353348   3.950804
     6    6 C       0.017871      1.104740   2.877389
     7    6 C       0.430392      1.110539   2.459069
     8    6 C      -0.002426      1.149619   2.852806
     9    8 O      -0.540172      1.849345   4.690827
    10    7 N      -0.338267      1.369159   3.969108
    11    6 C      -0.171512      1.158702   3.012810
    12    6 C       0.422345      1.119227   2.458428
    13    6 C      -0.233994      1.158267   3.075726
    14    6 C      -0.002364      1.130198   2.872166
    15    8 O      -0.595083      1.855439   4.739644
    16    6 C       0.504467      1.093445   2.402087
    17    7 N      -0.577521      1.555524   4.021998
    18    6 C      -0.228765      1.146199   3.082566
    19    8 O      -0.730691      1.863431   4.867260
    20    8 O      -0.674804      1.855350   4.819455
    21    6 C       0.387815      1.104943   2.507243
    22    6 C       0.518219      1.095135   2.386647
    23    6 C      -0.020067      1.127583   2.892484
    24    8 O      -0.616796      1.846398   4.770398
    25    8 O      -0.546417      1.853486   4.692931
    26    8 O      -0.552598      1.799086   4.753512
    27    7 N      -0.339069      1.404828   3.934241
    28    6 C      -0.191357      1.143870   3.047487
    29    6 C       0.390699      1.115500   2.493801
    30    6 C      -0.166998      1.170389   2.996609
    31    6 C       0.005288      1.110178   2.884534
    32    8 O      -0.553797      1.865187   4.688611
    33    6 C      -0.197383      1.166332   3.031051
    34    7 N      -0.322561      1.355875   3.966687
    35    6 C      -0.186280      1.144691   3.041589
    36    6 C      -0.054571      1.132352   2.922219
    37    6 C       0.418697      1.091637   2.489666
    38    6 C      -0.145454      1.161304   2.984150
    39    7 N      -0.518903      1.437899   4.081004
    40    6 C       0.008548      1.133681   2.857770
    41    8 O      -0.565840      1.855984   4.709856
    42   16 S      -0.223221      1.865244   4.266144   0.091832
    43    7 N      -0.363166      1.363128   4.000037
    44    6 C      -0.083108      1.139612   2.943496
    45    6 C      -0.222212      1.180825   3.041387
    46    6 C       0.395638      1.111243   2.493119
    47    6 C      -0.272915      1.181376   3.091539
    48    6 C      -0.185488      1.145092   3.040397
    49    8 O      -0.535590      1.854737   4.680852
    50    6 C      -0.273969      1.168851   3.105119
    51    6 C      -0.181350      1.176691   3.004659
    52    6 C      -0.194612      1.144765   3.049847
    53    6 C      -0.070683      1.142518   2.928165
    54    7 N      -0.415110      1.389220   4.025890
    55    6 C       0.274490      1.095843   2.629667
    56    7 N      -0.544282      1.602177   3.942104
    57    7 N      -0.449226      1.457034   3.992193
    58    6 C      -0.269940      1.164935   3.105006
    59    1 H       0.283285      0.716715
    60    1 H       0.093957      0.906043
    61    1 H       0.289036      0.710964
    62    1 H       0.134011      0.865989
    63    1 H       0.116123      0.883877
    64    1 H       0.281766      0.718234
    65    1 H       0.116888      0.883112
    66    1 H       0.119642      0.880358
    67    1 H       0.090364      0.909636
    68    1 H       0.104226      0.895774
    69    1 H       0.101820      0.898180
    70    1 H       0.396151      0.603849
    71    1 H       0.135942      0.864058
    72    1 H       0.121360      0.878640
    73    1 H       0.152349      0.847651
    74    1 H       0.276544      0.723456
    75    1 H       0.080356      0.919644
    76    1 H       0.105592      0.894408
    77    1 H       0.108224      0.891776
    78    1 H       0.087501      0.912499
    79    1 H       0.112105      0.887895
    80    1 H       0.119529      0.880471
    81    1 H       0.081300      0.918700
    82    1 H       0.280096      0.719904
    83    1 H       0.116316      0.883684
    84    1 H       0.138029      0.861971
    85    1 H       0.045214      0.954786
    86    1 H       0.046799      0.953201
    87    1 H       0.113228      0.886772
    88    1 H       0.122288      0.877712
    89    1 H       0.256426      0.743574
    90    1 H       0.212448      0.787552
    91    1 H       0.147984      0.852016
    92    1 H       0.254527      0.745473
    93    1 H       0.114859      0.885141
    94    1 H       0.096495      0.903505
    95    1 H       0.132662      0.867338
    96    1 H       0.112867      0.887133
    97    1 H       0.086142      0.913858
    98    1 H       0.075189      0.924811
    99    1 H       0.105771      0.894229
   100    1 H       0.082749      0.917251
   101    1 H       0.111420      0.888580
   102    1 H       0.075011      0.924989
   103    1 H       0.098268      0.901732
   104    1 H       0.105625      0.894375
   105    1 H       0.119430      0.880570
   106    1 H       0.091749      0.908251
   107    1 H       0.120552      0.879448
   108    1 H       0.121592      0.878408
   109    1 H       0.100330      0.899670
   110    1 H       0.095459      0.904541
   111    1 H       0.265570      0.734430
   112    1 H       0.230772      0.769228
   113    1 H       0.227935      0.772065
   114    1 H       0.236160      0.763840
   115    1 H       0.137574      0.862426
   116    1 H       0.073008      0.926992
   117    1 H       0.104907      0.895093
-----------------------------------------------------------------


Wiberg/Mayer (AO) data.
largest (>0.10) Wiberg bond orders for each atom

 ---------------------------------------------------------------------------
     #   Z sym  total        # sym  WBO       # sym  WBO       # sym  WBO
 ---------------------------------------------------------------------------
     1   7 N    3.340 --     7 C    1.218     2 C    0.993    59 N    0.882
                             9 C    0.155
     2   6 C    3.946 --     1 N    0.993    51 C    0.974    60 N    0.937
                             3 C    0.908
     3   6 C    3.868 --     4 C    1.628     5 N    1.247     2 C    0.908
     4   8 C    1.914 --     3 C    1.628     5 N    0.160
     5   7 N    3.351 --     3 C    1.247     6 C    0.980    61 N    0.876
                             4 C    0.160
     6   6 C    3.944 --    58 C    1.006     5 N    0.980    62 N    0.920
                            46 C    0.914
     7   6 C    3.839 --     9 C    1.660     1 N    1.218     8 C    0.882
     8   6 C    3.920 --    11 C    0.975    10 N    0.962    63 N    0.949
                             7 C    0.882
     9   8 C    1.967 --     7 C    1.660     1 N    0.155
    10   7 N    3.323 --    12 C    1.241     8 C    0.962    64 N    0.872
                            15 C    0.153
    11   6 C    3.946 --    13 C    1.022     8 C    0.975    65 N    0.946
                            66 N    0.940
    12   6 C    3.846 --    15 C    1.619    10 N    1.241    14 C    0.902
    13   6 C    3.962 --    11 C    1.022    67 N    0.963    68 N    0.957
                            16 C    0.891
    14   6 C    3.962 --    17 N    1.006    18 C    0.993    69 N    0.938
                            12 C    0.902
    15   8 C    1.887 --    12 C    1.619    10 N    0.153
    16   6 C    3.856 --    20 C    1.528    19 C    1.413    13 C    0.891
    17   7 N    2.903 --    21 C    1.356    14 C    1.006    70 N    0.188
                            24 C    0.182
    18   6 C    3.964 --    14 C    0.993    22 C    0.959    72 N    0.956
                            71 N    0.928
    19   8 C    1.709 --    16 C    1.413    20 C    0.189
    20   8 C    1.791 --    16 C    1.528    19 C    0.189
    21   6 C    3.886 --    24 C    1.564    17 N    1.356    23 C    0.891
    22   6 C    3.828 --    25 C    1.695    26 C    1.132    18 C    0.959
    23   6 C    3.912 --    28 C    0.979    27 N    0.953    73 N    0.941
                            21 C    0.891
    24   8 C    1.891 --    21 C    1.564    17 N    0.182
    25   8 C    1.946 --    22 C    1.695    26 C    0.155
    26   8 C    2.045 --    22 C    1.132    70 N    0.637    25 C    0.155
    27   7 N    3.320 --    29 C    1.242    23 C    0.953    74 N    0.868
                            32 C    0.157
    28   6 C    3.968 --    30 C    1.021    23 C    0.979    75 N    0.957
                            76 N    0.952
    29   6 C    3.881 --    32 C    1.620    27 N    1.242    31 C    0.947
    30   6 C    3.955 --    28 C    1.021    33 C    0.977    78 N    0.958
                            77 N    0.949
    31   6 C    3.938 --    35 C    0.981    34 N    0.969    29 C    0.947
                            79 N    0.918
    32   8 C    1.900 --    29 C    1.620    27 N    0.157
    33   6 C    3.963 --    36 C    1.017    30 C    0.977    81 N    0.965
                            80 N    0.955
    34   7 N    3.345 --    37 C    1.240    31 C    0.969    82 N    0.866
                            41 C    0.169
    35   6 C    3.954 --    38 C    1.012    31 C    0.981    83 N    0.948
                            84 N    0.945
    36   6 C    3.966 --    39 N    1.040    33 C    1.017    86 N    0.948
                            85 N    0.945
    37   6 C    3.884 --    41 C    1.612    34 N    1.240    40 C    0.958
    38   6 C    3.948 --    35 C    1.012    42 O    1.000    87 N    0.948
                            88 N    0.946
    39   7 N    2.949 --    36 C    1.040    90 N    0.937    89 N    0.893
    40   6 C    3.924 --    44 C    0.964    37 C    0.958    43 N    0.937
                            91 N    0.934
    41   8 C    1.900 --    37 C    1.612    34 N    0.169
    42  16 O    2.120 --    45 C    1.005    38 C    1.000
    43   7 N    3.305 --    46 C    1.211    40 C    0.937    92 N    0.894
                            49 C    0.159
    44   6 C    3.967 --    48 C    1.004    47 C    0.989    40 C    0.964
                            93 N    0.944
    45   6 C    3.925 --    42 O    1.005    94 N    0.966    96 N    0.963
                            95 N    0.959
    46   6 C    3.866 --    49 C    1.666    43 N    1.211     6 C    0.914
    47   6 C    3.954 --    44 C    0.989    97 N    0.976    98 N    0.972
                            99 N    0.970
    48   6 C    3.967 --    50 C    1.018    44 C    1.004   100 N    0.959
                           101 N    0.953
    49   8 C    1.938 --    46 C    1.666    43 N    0.159
    50   6 C    3.960 --    48 C    1.018   103 N    0.976   104 N    0.972
                           102 N    0.968
    51   6 C    3.954 --    52 C    0.992     2 C    0.974   106 N    0.959
                           105 N    0.956
    52   6 C    3.958 --    53 C    1.021    51 C    0.992   108 N    0.955
                           107 N    0.944
    53   6 C    3.927 --    52 C    1.021    54 N    0.956   110 N    0.954
                           109 N    0.953
    54   7 N    3.153 --    55 C    1.102    53 C    0.956   111 N    0.888
                            56 N    0.105
    55   6 C    3.940 --    56 N    1.718    54 N    1.102    57 N    1.090
    56   7 N    2.884 --    55 C    1.718   112 N    0.909    54 N    0.105
    57   7 N    3.091 --    55 C    1.090   113 N    0.921   114 N    0.919
    58   6 C    3.950 --     6 C    1.006   116 N    0.973   117 N    0.961
                           115 N    0.954
    59   1 N    0.920 --     1 N    0.882
    60   1 N    0.991 --     2 C    0.937
    61   1 N    0.916 --     5 N    0.876
    62   1 N    0.982 --     6 C    0.920
    63   1 N    0.987 --     8 C    0.949
    64   1 N    0.921 --    10 N    0.872
    65   1 N    0.986 --    11 C    0.946
    66   1 N    0.986 --    11 C    0.940
    67   1 N    0.992 --    13 C    0.963
    68   1 N    0.989 --    13 C    0.957
    69   1 N    0.990 --    14 C    0.938
    70   1 N    0.843 --    26 C    0.637    17 N    0.188
    71   1 N    0.982 --    18 C    0.928
    72   1 N    0.985 --    18 C    0.956
    73   1 N    0.977 --    23 C    0.941
    74   1 N    0.924 --    27 N    0.868
    75   1 N    0.994 --    28 C    0.957
    76   1 N    0.989 --    28 C    0.952
    77   1 N    0.988 --    30 C    0.949
    78   1 N    0.992 --    30 C    0.958
    79   1 N    0.987 --    31 C    0.918
    80   1 N    0.986 --    33 C    0.955
    81   1 N    0.993 --    33 C    0.965
    82   1 N    0.922 --    34 N    0.866
    83   1 N    0.986 --    35 C    0.948
    84   1 N    0.981 --    35 C    0.945
    85   1 N    0.998 --    36 C    0.945
    86   1 N    0.998 --    36 C    0.948
    87   1 N    0.987 --    38 C    0.948
    88   1 N    0.985 --    38 C    0.946
    89   1 N    0.934 --    39 N    0.893
    90   1 N    0.955 --    39 N    0.937
    91   1 N    0.978 --    40 C    0.934
    92   1 N    0.935 --    43 N    0.894
    93   1 N    0.987 --    44 C    0.944
    94   1 N    0.991 --    45 C    0.966
    95   1 N    0.982 --    45 C    0.959
    96   1 N    0.987 --    45 C    0.963
    97   1 N    0.993 --    47 C    0.976
    98   1 N    0.994 --    47 C    0.972
    99   1 N    0.989 --    47 C    0.970
   100   1 N    0.993 --    48 C    0.959
   101   1 N    0.988 --    48 C    0.953
   102   1 N    0.994 --    50 C    0.968
   103   1 N    0.990 --    50 C    0.976
   104   1 N    0.989 --    50 C    0.972
   105   1 N    0.986 --    51 C    0.956
   106   1 N    0.992 --    51 C    0.959
   107   1 N    0.985 --    52 C    0.944
   108   1 N    0.985 --    52 C    0.955
   109   1 N    0.990 --    53 C    0.953
   110   1 N    0.991 --    53 C    0.954
   111   1 N    0.929 --    54 N    0.888
   112   1 N    0.947 --    56 N    0.909
   113   1 N    0.948 --    57 N    0.921
   114   1 N    0.944 --    57 N    0.919
   115   1 N    0.981 --    58 C    0.954
   116   1 N    0.995 --    58 C    0.973
   117   1 N    0.989 --    58 C    0.961
 ---------------------------------------------------------------------------

Topologies differ in total number of bonds
Writing topology from bond orders to xtbtopo.mol

Atomic dipole moments (in atomic units):
---------------------------------------------------------
     #    Z                 x            y            z
---------------------------------------------------------
           total     2.045192    13.233126     2.120410
---------------------------------------------------------
         |total|    13.557086    34.458675 Debye


           -------------------------------------------------
          | TOTAL ENERGY            -3197.370753681140 Eh   |
          | GRADIENT NORM               0.447698001544 Eh/α |
           -------------------------------------------------

------------------------------------------------------------------------
 * finished run on 2026/05/23 at 12:53:03.907     
------------------------------------------------------------------------
 total:
 * wall-time:     0 d,  0 h,  0 min, 34.337 sec
 *  cpu-time:     0 d,  0 h,  1 min, 24.926 sec
 * ratio c/w:     2.473 speedup
 SCF:
 * wall-time:     0 d,  0 h,  0 min, 34.020 sec
 *  cpu-time:     0 d,  0 h,  1 min, 24.425 sec
 * ratio c/w:     2.482 speedup

normal termination of xtb
