      -----------------------------------------------------------      
     |                   =====================                   |     
     |                           x T B                           |     
     |                   =====================                   |     
     |                         S. Grimme                         |     
     |          Mulliken Center for Theoretical Chemistry        |     
     |                    University of Bonn                     |     
      -----------------------------------------------------------      

   * xtb version 6.7.1 (26dd68d) compiled by 'froitzheim@fs7' on 2026-05-14

   xtb is free software: you can redistribute it and/or modify it under
   the terms of the GNU Lesser General Public License as published by
   the Free Software Foundation, either version 3 of the License, or
   (at your option) any later version.
   
   xtb is distributed in the hope that it will be useful,
   but WITHOUT ANY WARRANTY; without even the implied warranty of
   MERCHANTABILITY or FITNESS FOR A PARTICULAR PURPOSE.  See the
   GNU Lesser General Public License for more details.
   
   Cite this work as:
   * C. Bannwarth, E. Caldeweyher, S. Ehlert, A. Hansen, P. Pracht,
     J. Seibert, S. Spicher, S. Grimme, WIREs Comput. Mol. Sci., 2020, 11,
     e01493. DOI: 10.1002/wcms.1493
   
   for g-xTB:
   * T. Froitzheim, M. Müller, A. Hansen, S. Grimme, ChemRxiv, 2025, preprint.
     DOI: 10.26434/chemrxiv-2025-bjxv
   for GFN2-xTB:
   * C. Bannwarth, S. Ehlert and S. Grimme., J. Chem. Theory Comput., 2019,
     15, 1652-1671. DOI: 10.1021/acs.jctc.8b01176
   for GFN1-xTB:
   * S. Grimme, C. Bannwarth, P. Shushkov, J. Chem. Theory Comput., 2017,
     13, 1989-2009. DOI: 10.1021/acs.jctc.7b00118
   for GFN0-xTB:
   * P. Pracht, E. Caldeweyher, S. Ehlert, S. Grimme, ChemRxiv, 2019, preprint.
     DOI: 10.26434/chemrxiv.8326202.v1
   for GFN-FF:
   * S. Spicher and S. Grimme, Angew. Chem. Int. Ed., 2020, 59, 15665-15673.
     DOI: 10.1002/anie.202004239
   
   for ALPB and GBSA implicit solvation:
   * S. Ehlert, M. Stahn, S. Spicher, S. Grimme, J. Chem. Theory Comput.,
     2021, 17, 4250-4261. DOI: 10.1021/acs.jctc.1c00471
   
   for ddCOSMO and CPCM-X implicit solvation:
   * M. Stahn, S. Ehlert, S. Grimme, J. Phys. Chem. A,
     2023, XX, XXXX-XXXX. DOI: 10.1021/acs.jpca.3c04382
   
   for DFT-D4:
   * E. Caldeweyher, C. Bannwarth and S. Grimme, J. Chem. Phys., 2017,
     147, 034112. DOI: 10.1063/1.4993215
   * E. Caldeweyher, S. Ehlert, A. Hansen, H. Neugebauer, S. Spicher,
     C. Bannwarth and S. Grimme, J. Chem. Phys., 2019, 150, 154122.
     DOI: 10.1063/1.5090222
   * E. Caldeweyher, J.-M. Mewes, S. Ehlert and S. Grimme, Phys. Chem. Chem. Phys.
     2020, 22, 8499-8512. DOI: 10.1039/D0CP00502A
   
   for sTDA-xTB:
   * S. Grimme and C. Bannwarth, J. Chem. Phys., 2016, 145, 054103.
     DOI: 10.1063/1.4959605
   
   in the mass-spec context:
   * V. Asgeirsson, C. Bauer and S. Grimme, Chem. Sci., 2017, 8, 4879.
     DOI: 10.1039/c7sc00601b
   * J. Koopman and S. Grimme, ACS Omega 2019, 4, 12, 15120-15133.
     DOI: 10.1021/acsomega.9b02011
   
   for metadynamics refer to:
   * S. Grimme, J. Chem. Theory Comput., 2019, 155, 2847-2862
     DOI: 10.1021/acs.jctc.9b00143
   
   for SPH calculations refer to:
   * S. Spicher and S. Grimme, J. Chem. Theory Comput., 2021, 17, 1701-1714
     DOI: 10.1021/acs.jctc.0c01306
   
   for ONIOM refer to:
   * C. Plett, A. Katbashev, S. Ehlert, S. Grimme, M. Bursch,
     Phys. Chem. Chem. Phys., 2023, 25, 17860-17868. DOI: 10.1039/D3CP02178E
   
   for DIPRO refer to:
   * J. Kohn, N. Gildemeister, S. Grimme, D. Fazzi, A. Hansen,
     J. Chem. Phys. 159, 144106 (2023). DOI: 10.1063/5.0167484
   
   for PTB refer to:
   * S. Grimme, M. Mueller, A. Hansen, J. Chem. Phys., 2023, 158, 124111.
     DOI: 10.1063/5.0137838
   
   with help from (in alphabetical order)
   P. Atkinson, C. Bannwarth, F. Bohle, G. Brandenburg, E. Caldeweyher,
   M. Checinski, S. Dohm, S. Ehlert, S. Ehrlich, M. Friede, T. Froitzheim,
   I. Gerasimov, C. Hölzer, A. Katbashev, J. Kohn, J. Koopman, C. Lavigne,
   S. Lehtola, F. März, M. Müller, F. Musil, H. Neugebauer, J. Pisarek,
   C. Plett, P. Pracht, F. Pultar, J. Seibert, P. Shushkov, S. Spicher,
   M. Stahn, M. Steiner, T. Strunk, J. Stückrath, T. Rose, and J. Unsleber
   
 * started run on 2026/05/23 at 08:15:35.689     
   ID    Z sym.   atoms
    1    7 N      1, 5, 10, 17, 23, 28, 35
    2    6 C      2, 3, 6-8, 11-14, 16, 20, 21, 24-26, 29, 31-34, 36-40
    3    8 O      4, 9, 15, 18, 19, 22, 27, 30
    4    1 H      41-70

           -------------------------------------------------
          |                Calculation Setup                |
           -------------------------------------------------

          program call               : /home/xchen/software/xtb-6.7.1-gxtb/bin/xtb /home/xchen/Test/benchmark/md_sampled/01_6_0109_n1/snap_0085.xyz --charge -1 --gxtb --norestart
          coordinate file            : /home/xchen/Test/benchmark/md_sampled/01_6_0109_n1/snap_0085.xyz
          omp threads                :                    48

core increment energy         -1.7791297691186E+03 Eh
dispersion energy              1.0751253502352E-02 Eh
molecular charge              -1.0000000000000E+00 e
number of electrons            2.1399999999800E+02 e
number of unpaired electrons   0.0000000000000E+00 e
wavefunction                   restricted
integral cutoff                2.6907767250513E+01 bohr
energy convergence             1.0000000000000E-06 Eh
density convergence            2.0000000000000E-05 e

------------------------------------------------------------
  cycle        total energy    energy error   density error
------------------------------------------------------------
      1     -1954.974158149  -1.7585514E+02   0.0000000E+00
      2     -1955.307548231  -3.3339008E-01   2.5390343E-02
      3     -1955.519323055  -2.1177482E-01   1.9962074E-02
      4     -1955.965577046  -4.4625399E-01   1.5782147E-02
      5     -1955.973286335  -7.7092895E-03   1.2480462E-03
      6     -1955.973794889  -5.0855368E-04   2.0267214E-04
      7     -1955.973843576  -4.8687347E-05   6.4336645E-05
      8     -1955.973847733  -4.1570705E-06   1.7177452E-05
      9     -1955.973848284  -5.5040090E-07   3.6379739E-06
------------------------------------------------------------

electronic energy             -1.7685483041850E+02 Eh
total energy                  -1.9559738482836E+03 Eh

Post processing:
 | Mayer-Wiberg bond orders
 | Molecular Multipole Moments

 total:                                   9.617 sec
 - increment                              0.000 sec (  0%)
 - repulsion                              0.015 sec (  0%)
 - dispersion                             0.260 sec (  2%)
 - coulomb                                0.145 sec (  1%)
 - exchange                               0.012 sec (  0%)
 - hamiltonian                            0.312 sec (  3%)
 - acp                                    0.205 sec (  2%)
 - spin polarization                      0.000 sec (  0%)
 - post processing                        0.064 sec (  0%)
 - scc                                    7.923 sec ( 82%)
 - coulomb gradient                       0.043 sec (  0%)
 - dispersion gradient                    0.016 sec (  0%)
 - exchange gradient                      0.063 sec (  0%)
 - repulsion gradient                     0.004 sec (  0%)
 - acp gradient                           0.241 sec (  2%)
 - hamiltonian gradient                   0.371 sec (  3%)
 - gradient                               0.740 sec (  7%)

         :::::::::::::::::::::::::::::::::::::::::::::::::::::
         ::                     SUMMARY                     ::
         :::::::::::::::::::::::::::::::::::::::::::::::::::::
         :: total energy           -1955.973848283601 Eh    ::
         :: gradient norm              0.341740330153 Eh/a0 ::
         :: HOMO-LUMO gap              6.040384175986 eV    ::
         ::.................................................::
         :: add. restraining           0.000000000000 Eh    ::
         :: total charge              -1.000000000000 e     ::
         :::::::::::::::::::::::::::::::::::::::::::::::::::::

           -------------------------------------------------
          |                Property Printout                |
           -------------------------------------------------

    * Orbital Energies and Occupations
------------------------------------------------------------------
      #    Occupation            Energy/Eh            Energy/eV
------------------------------------------------------------------
      1        2.0000           -1.2728437             -34.6358
    ...           ...                  ...                  ...
     95        2.0000           -0.2983227              -8.1178
     96        2.0000           -0.2963166              -8.0632
     97        2.0000           -0.2906254              -7.9083
     98        2.0000           -0.2889548              -7.8629
     99        2.0000           -0.2860146              -7.7829
    100        2.0000           -0.2856018              -7.7716
    101        2.0000           -0.2823758              -7.6838
    102        2.0000           -0.2796609              -7.6100
    103        2.0000           -0.2650627              -7.2127
    104        2.0000           -0.2578918              -7.0176
    105        2.0000           -0.1868406              -5.0842
    106        2.0000           -0.1720543              -4.6818
    107        2.0000           -0.1656306              -4.5070 (HOMO)
    108                          0.0563494               1.5333 (LUMO)
    109                          0.0892090               2.4275
    110                          0.0920260               2.5042
    111                          0.0951460               2.5891
    112                          0.1086316               2.9560
    113                          0.1103066               3.0016
    114                          0.1142357               3.1085
    115                          0.1233836               3.3574
    116                          0.1359884               3.7004
    117                          0.2311998               6.2913
    118                          0.2327291               6.3329
    ...                                ...                  ...
    190                          0.9351549              25.4469
------------------------------------------------------------------
               HL-Gap            0.2219800 Eh            6.0404 eV
------------------------------------------------------------------

Atomic charges and shell populations (in atomic units):
------------------------------------------------------
     #    Z                q          p(s)       p(p)
------------------------------------------------------
     1    7 N      -0.371744      1.404925   3.966819
     2    6 C      -0.072380      1.132318   2.940063
     3    6 C       0.419995      1.089048   2.490958
     4    8 O      -0.542626      1.846256   4.696370
     5    7 N      -0.337646      1.369227   3.968419
     6    6 C       0.008162      1.130717   2.861121
     7    6 C       0.432202      1.101487   2.466311
     8    6 C      -0.024237      1.106701   2.917537
     9    8 O      -0.510371      1.848806   4.661564
    10    7 N      -0.353982      1.374084   3.979898
    11    6 C      -0.193765      1.142413   3.051352
    12    6 C       0.412164      1.091260   2.496576
    13    6 C      -0.232110      1.167509   3.064601
    14    6 C      -0.067665      1.127004   2.940661
    15    8 O      -0.506947      1.851395   4.655552
    16    6 C       0.512439      1.079533   2.408028
    17    7 N      -0.311052      1.354722   3.956330
    18    8 O      -0.711988      1.860459   4.851529
    19    8 O      -0.659869      1.850070   4.809799
    20    6 C       0.409466      1.094177   2.496357
    21    6 C      -0.016269      1.103787   2.912482
    22    8 O      -0.561652      1.853456   4.708197
    23    7 N      -0.356491      1.351214   4.005277
    24    6 C      -0.258014      1.176687   3.081327
    25    6 C       0.446527      1.077542   2.475931
    26    6 C      -0.084838      1.120261   2.964577
    27    8 O      -0.486444      1.845242   4.641203
    28    7 N      -0.320709      1.355554   3.965155
    29    6 C       0.427214      1.102866   2.469921
    30    8 O      -0.557947      1.865934   4.692013
    31    6 C      -0.138555      1.156216   2.982339
    32    6 C      -0.076631      1.119532   2.957099
    33    6 C      -0.003841      1.150166   2.853675
    34    6 C      -0.043780      1.119640   2.924140
    35    7 N      -0.266179      1.354522   3.911657
    36    6 C       0.054186      1.112195   2.833619
    37    6 C      -0.084863      1.162577   2.922286
    38    6 C      -0.132219      1.146445   2.985775
    39    6 C      -0.125950      1.147453   2.978497
    40    6 C      -0.115153      1.148268   2.966885
    41    1 H       0.273160      0.726840
    42    1 H       0.109277      0.890723
    43    1 H       0.113111      0.886889
    44    1 H       0.262111      0.737889
    45    1 H       0.125783      0.874217
    46    1 H       0.136633      0.863367
    47    1 H       0.271312      0.728688
    48    1 H       0.097167      0.902833
    49    1 H       0.120566      0.879434
    50    1 H       0.091152      0.908848
    51    1 H       0.091851      0.908149
    52    1 H       0.115260      0.884740
    53    1 H       0.123283      0.876717
    54    1 H       0.276087      0.723913
    55    1 H       0.116535      0.883465
    56    1 H       0.262747      0.737253
    57    1 H       0.106650      0.893350
    58    1 H       0.085756      0.914244
    59    1 H       0.118861      0.881139
    60    1 H       0.140464      0.859536
    61    1 H       0.100016      0.899984
    62    1 H       0.281348      0.718652
    63    1 H       0.097238      0.902762
    64    1 H       0.114888      0.885112
    65    1 H       0.120658      0.879342
    66    1 H       0.257386      0.742614
    67    1 H       0.089454      0.910546
    68    1 H       0.097888      0.902112
    69    1 H       0.098947      0.901053
    70    1 H       0.107973      0.892027
------------------------------------------------------


Wiberg/Mayer (AO) data.
largest (>0.10) Wiberg bond orders for each atom

 ---------------------------------------------------------------------------
     #   Z sym  total        # sym  WBO       # sym  WBO       # sym  WBO
 ---------------------------------------------------------------------------
     1   7 N    3.225 --     7 C    1.119     2 C    1.003    41 O    0.868
                             9 C    0.131
     2   6 C    3.934 --     1 N    1.003    43 O    0.946     3 C    0.944
                            42 O    0.933
     3   6 C    3.872 --     4 C    1.660     5 N    1.200     2 C    0.944
     4   8 C    1.950 --     3 C    1.660     5 N    0.160
     5   7 N    3.299 --     3 C    1.200     6 C    0.954    44 O    0.893
                             4 C    0.160
     6   6 C    3.931 --    31 C    0.961     5 N    0.954    45 O    0.948
                            29 C    0.937
     7   6 C    3.857 --     9 C    1.717     1 N    1.119     8 C    0.937
     8   6 C    3.939 --    10 N    0.979    11 C    0.965     7 C    0.937
                            46 O    0.925
     9   8 C    1.990 --     7 C    1.717     1 N    0.131
    10   7 N    3.318 --    12 C    1.175     8 C    0.979    47 O    0.884
                            15 C    0.185
    11   6 C    3.952 --    13 C    1.013     8 C    0.965    48 O    0.955
                            49 O    0.939
    12   6 C    3.883 --    15 C    1.695    10 N    1.175    14 C    0.965
    13   6 C    3.950 --    11 C    1.013    51 O    0.957    50 O    0.950
                            16 C    0.870
    14   6 C    3.923 --    12 C    0.965    17 N    0.964    53 O    0.948
                            52 O    0.944
    15   8 C    1.987 --    12 C    1.695    10 N    0.185
    16   6 C    3.868 --    19 C    1.535    18 C    1.443    13 C    0.870
    17   7 N    3.345 --    20 C    1.240    14 C    0.964    54 O    0.893
                            22 C    0.169
    18   8 C    1.720 --    16 C    1.443    19 C    0.199
    19   8 C    1.812 --    16 C    1.535    18 C    0.199
    20   6 C    3.880 --    22 C    1.629    17 N    1.240    21 C    0.941
    21   6 C    3.949 --    24 C    0.990    23 N    0.987    20 C    0.941
                            55 O    0.939
    22   8 C    1.904 --    20 C    1.629    17 N    0.169
    23   7 N    3.278 --    25 C    1.131    21 C    0.987    56 O    0.898
                            27 C    0.161
    24   6 C    3.947 --    21 C    0.990    58 O    0.976    57 O    0.970
                            59 O    0.965
    25   6 C    3.877 --    27 C    1.731    23 N    1.131    26 C    0.959
    26   6 C    3.936 --    28 N    0.982    25 C    0.959    61 O    0.945
                            60 O    0.944
    27   8 C    2.014 --    25 C    1.731    23 N    0.161
    28   7 N    3.325 --    29 C    1.238    26 C    0.982    62 O    0.875
                            30 C    0.153
    29   6 C    3.872 --    30 C    1.623    28 N    1.238     6 C    0.937
    30   8 C    1.891 --    29 C    1.623    28 N    0.153
    31   6 C    3.958 --    32 C    1.001     6 C    0.961    63 O    0.957
                            64 O    0.956
    32   6 C    3.956 --    33 C    1.590    34 C    1.183    31 C    1.001
    33   6 C    3.910 --    32 C    1.590    35 N    1.181    65 O    0.950
    34   6 C    3.968 --    37 C    1.327    36 C    1.266    32 C    1.183
    35   7 N    3.443 --    33 C    1.181    36 C    1.138    66 O    0.903
    36   6 C    3.939 --    38 C    1.329    34 C    1.266    35 N    1.138
    37   6 C    3.963 --    39 C    1.488    34 C    1.327    67 O    0.953
                            38 C    0.120
    38   6 C    3.961 --    40 C    1.489    36 C    1.329    68 O    0.954
                            37 C    0.120
    39   6 C    3.966 --    37 C    1.488    40 C    1.369    69 O    0.958
    40   6 C    3.969 --    38 C    1.489    39 C    1.369    70 O    0.956
    41   1 O    0.925 --     1 N    0.868
    42   1 O    0.988 --     2 C    0.933
    43   1 O    0.987 --     2 C    0.946
    44   1 O    0.931 --     5 N    0.893
    45   1 O    0.984 --     6 C    0.948
    46   1 O    0.981 --     8 C    0.925
    47   1 O    0.926 --    10 N    0.884
    48   1 O    0.991 --    11 C    0.955
    49   1 O    0.985 --    11 C    0.939
    50   1 O    0.992 --    13 C    0.950
    51   1 O    0.992 --    13 C    0.957
    52   1 O    0.987 --    14 C    0.944
    53   1 O    0.985 --    14 C    0.948
    54   1 O    0.924 --    17 N    0.893
    55   1 O    0.986 --    21 C    0.939
    56   1 O    0.931 --    23 N    0.898
    57   1 O    0.989 --    24 C    0.970
    58   1 O    0.993 --    24 C    0.976
    59   1 O    0.986 --    24 C    0.965
    60   1 O    0.980 --    26 C    0.944
    61   1 O    0.990 --    26 C    0.945
    62   1 O    0.921 --    28 N    0.875
    63   1 O    0.991 --    31 C    0.957
    64   1 O    0.987 --    31 C    0.956
    65   1 O    0.985 --    33 C    0.950
    66   1 O    0.934 --    35 N    0.903
    67   1 O    0.992 --    37 C    0.953
    68   1 O    0.990 --    38 C    0.954
    69   1 O    0.990 --    39 C    0.958
    70   1 O    0.988 --    40 C    0.956
 ---------------------------------------------------------------------------

Topologies differ in total number of bonds
Writing topology from bond orders to xtbtopo.mol

Atomic dipole moments (in atomic units):
---------------------------------------------------------
     #    Z                 x            y            z
---------------------------------------------------------
           total     4.075705    10.124964     8.603648
---------------------------------------------------------
         |total|    13.897807    35.324701 Debye


           -------------------------------------------------
          | TOTAL ENERGY            -1955.973848283601 Eh   |
          | GRADIENT NORM               0.341740330153 Eh/α |
           -------------------------------------------------

------------------------------------------------------------------------
 * finished run on 2026/05/23 at 08:15:46.038     
------------------------------------------------------------------------
 total:
 * wall-time:     0 d,  0 h,  0 min, 10.348 sec
 *  cpu-time:     0 d,  0 h,  0 min, 20.619 sec
 * ratio c/w:     1.993 speedup
 SCF:
 * wall-time:     0 d,  0 h,  0 min,  9.867 sec
 *  cpu-time:     0 d,  0 h,  0 min, 20.349 sec
 * ratio c/w:     2.062 speedup

normal termination of xtb
