      -----------------------------------------------------------      
     |                   =====================                   |     
     |                           x T B                           |     
     |                   =====================                   |     
     |                         S. Grimme                         |     
     |          Mulliken Center for Theoretical Chemistry        |     
     |                    University of Bonn                     |     
      -----------------------------------------------------------      

   * xtb version 6.7.1 (edcfbbe) compiled by 'albert@albert-system' on 2024-07-22

   xtb is free software: you can redistribute it and/or modify it under
   the terms of the GNU Lesser General Public License as published by
   the Free Software Foundation, either version 3 of the License, or
   (at your option) any later version.
   
   xtb is distributed in the hope that it will be useful,
   but WITHOUT ANY WARRANTY; without even the implied warranty of
   MERCHANTABILITY or FITNESS FOR A PARTICULAR PURPOSE.  See the
   GNU Lesser General Public License for more details.
   
   Cite this work as:
   * C. Bannwarth, E. Caldeweyher, S. Ehlert, A. Hansen, P. Pracht,
     J. Seibert, S. Spicher, S. Grimme, WIREs Comput. Mol. Sci., 2020, 11,
     e01493. DOI: 10.1002/wcms.1493
   
   for GFN2-xTB:
   * C. Bannwarth, S. Ehlert and S. Grimme., J. Chem. Theory Comput., 2019,
     15, 1652-1671. DOI: 10.1021/acs.jctc.8b01176
   for GFN1-xTB:
   * S. Grimme, C. Bannwarth, P. Shushkov, J. Chem. Theory Comput., 2017,
     13, 1989-2009. DOI: 10.1021/acs.jctc.7b00118
   for GFN0-xTB:
   * P. Pracht, E. Caldeweyher, S. Ehlert, S. Grimme, ChemRxiv, 2019, preprint.
     DOI: 10.26434/chemrxiv.8326202.v1
   for GFN-FF:
   * S. Spicher and S. Grimme, Angew. Chem. Int. Ed., 2020, 59, 15665-15673.
     DOI: 10.1002/anie.202004239
   
   for ALPB and GBSA implicit solvation:
   * S. Ehlert, M. Stahn, S. Spicher, S. Grimme, J. Chem. Theory Comput.,
     2021, 17, 4250-4261. DOI: 10.1021/acs.jctc.1c00471
   
   for ddCOSMO and CPCM-X implicit solvation:
   * M. Stahn, S. Ehlert, S. Grimme, J. Phys. Chem. A,
     2023, XX, XXXX-XXXX. DOI: 10.1021/acs.jpca.3c04382
   
   for DFT-D4:
   * E. Caldeweyher, C. Bannwarth and S. Grimme, J. Chem. Phys., 2017,
     147, 034112. DOI: 10.1063/1.4993215
   * E. Caldeweyher, S. Ehlert, A. Hansen, H. Neugebauer, S. Spicher,
     C. Bannwarth and S. Grimme, J. Chem. Phys., 2019, 150, 154122.
     DOI: 10.1063/1.5090222
   * E. Caldeweyher, J.-M. Mewes, S. Ehlert and S. Grimme, Phys. Chem. Chem. Phys.
     2020, 22, 8499-8512. DOI: 10.1039/D0CP00502A
   
   for sTDA-xTB:
   * S. Grimme and C. Bannwarth, J. Chem. Phys., 2016, 145, 054103.
     DOI: 10.1063/1.4959605
   
   in the mass-spec context:
   * V. Asgeirsson, C. Bauer and S. Grimme, Chem. Sci., 2017, 8, 4879.
     DOI: 10.1039/c7sc00601b
   * J. Koopman and S. Grimme, ACS Omega 2019, 4, 12, 15120-15133.
     DOI: 10.1021/acsomega.9b02011
   
   for metadynamics refer to:
   * S. Grimme, J. Chem. Theory Comput., 2019, 155, 2847-2862
     DOI: 10.1021/acs.jctc.9b00143
   
   for SPH calculations refer to:
   * S. Spicher and S. Grimme, J. Chem. Theory Comput., 2021, 17, 1701-1714
     DOI: 10.1021/acs.jctc.0c01306
   
   for ONIOM refer to:
   * C. Plett, A. Katbashev, S. Ehlert, S. Grimme, M. Bursch,
     Phys. Chem. Chem. Phys., 2023, 25, 17860-17868. DOI: 10.1039/D3CP02178E
   
   for DIPRO refer to:
   * J. Kohn, N. Gildemeister, S. Grimme, D. Fazzi, A. Hansen,
     J. Chem. Phys., 2023, just accepted.
   
   for PTB refer to:
   * S. Grimme, M. Mueller, A. Hansen, J. Chem. Phys., 2023, 158, 124111.
     DOI: 10.1063/5.0137838
   
   with help from (in alphabetical order)
   P. Atkinson, C. Bannwarth, F. Bohle, G. Brandenburg, E. Caldeweyher
   M. Checinski, S. Dohm, S. Ehlert, S. Ehrlich, I. Gerasimov, C. Hölzer
   A. Katbashev, J. Kohn, J. Koopman, C. Lavigne, S. Lehtola, F. März, M. Müller,
   F. Musil, H. Neugebauer, J. Pisarek, C. Plett, P. Pracht, F. Pultar,
   J. Seibert, P. Shushkov, S. Spicher, M. Stahn, M. Steiner, T. Strunk,
   J. Stückrath, T. Rose, and J. Unsleber
   
 * started run on 2026/05/23 at 12:27:38.498     
   ID    Z sym.   atoms
    1    7 N      1, 5, 10, 17, 23, 25, 28, 34, 41, 46, 50
    2    6 C      2, 3, 6-8, 11-15, 18-21, 24, 26, 27, 29-32, 35-38, 40,
                  42-45, 48, 49, 51-53
    3    8 O      4, 9, 16, 22, 33, 39, 47
    4    1 H      54-110

           -------------------------------------------------
          |                Calculation Setup                |
           -------------------------------------------------

          program call               : /home/xchen/software/xtb-6.7.1/xtb-dist/bin/xtb /home/xchen/Test/benchmark/md_sampled/07_7_0083_0/snap_0021.xyz --charge 0 --gfn 2 --norestart
          coordinate file            : /home/xchen/Test/benchmark/md_sampled/07_7_0083_0/snap_0021.xyz
          omp threads                :                    48


           -------------------------------------------------
          |                 G F N 2 - x T B                 |
           -------------------------------------------------

        Reference                      10.1021/acs.jctc.8b01176
      * Hamiltonian:
        H0-scaling (s, p, d)           1.850000    2.230000    2.230000
        zeta-weighting                 0.500000
      * Dispersion:
        s8                             2.700000
        a1                             0.520000
        a2                             5.000000
        s9                             5.000000
      * Repulsion:
        kExp                           1.500000    1.000000
        rExp                           1.000000
      * Coulomb:
        alpha                          2.000000
        third order                    shell-resolved
        anisotropic                    true
        a3                             3.000000
        a5                             4.000000
        cn-shift                       1.200000
        cn-exp                         4.000000
        max-rad                        5.000000


          ...................................................
          :                      SETUP                      :
          :.................................................:
          :  # basis functions                 269          :
          :  # atomic orbitals                 269          :
          :  # shells                          163          :
          :  # electrons                       294          :
          :  max. iterations                   250          :
          :  Hamiltonian                  GFN2-xTB          :
          :  restarted?                      false          :
          :  GBSA solvation                  false          :
          :  PC potential                    false          :
          :  electronic temp.          300.0000000     K    :
          :  accuracy                    1.0000000          :
          :  -> integral cutoff          0.2500000E+02      :
          :  -> integral neglect         0.1000000E-07      :
          :  -> SCF convergence          0.1000000E-05 Eh   :
          :  -> wf. convergence          0.1000000E-03 e    :
          :  Broyden damping             0.4000000          :
          :  net charge                          0          :
          :  unpaired electrons                  0          :
          ...................................................

 iter      E             dE          RMSdq      gap      omega  full diag
   1   -166.1597446 -0.166160E+03  0.372E+00    3.72       0.0  T
   2   -166.5758232 -0.416079E+00  0.208E+00    3.29       1.0  T
   3   -166.5986813 -0.228581E-01  0.114E+00    3.19       1.0  T
   4   -166.6000962 -0.141486E-02  0.282E-01    2.75       1.0  T
   5   -166.6065675 -0.647138E-02  0.100E-01    2.82       1.0  T
   6   -166.6068329 -0.265345E-03  0.501E-02    2.82       1.0  T
   7   -166.6069017 -0.687742E-04  0.230E-02    2.82       1.0  T
   8   -166.6069130 -0.113055E-04  0.608E-03    2.83       1.6  T
   9   -166.6069137 -0.733852E-06  0.297E-03    2.83       3.2  T
  10   -166.6069139 -0.199148E-06  0.119E-03    2.82       8.0  T
  11   -166.6069139 -0.314346E-07  0.467E-04    2.82      20.4  T
  12   -166.6069139 -0.767267E-08  0.146E-04    2.82      65.2  T

   *** convergence criteria satisfied after 12 iterations ***

         #    Occupation            Energy/Eh            Energy/eV
      -------------------------------------------------------------
         1        2.0000           -0.7049913             -19.1838
       ...           ...                  ...                  ...
       141        2.0000           -0.3742172             -10.1830
       142        2.0000           -0.3719081             -10.1201
       143        2.0000           -0.3623796              -9.8609
       144        2.0000           -0.3591290              -9.7724
       145        2.0000           -0.3565859              -9.7032
       146        2.0000           -0.3557706              -9.6810
       147        2.0000           -0.3384884              -9.2107 (HOMO)
       148                         -0.2347153              -6.3869 (LUMO)
       149                         -0.2291090              -6.2344
       150                         -0.2111593              -5.7459
       151                         -0.2093778              -5.6975
       152                         -0.2073550              -5.6424
       ...                                ...                  ...
       269                          0.7102168              19.3260
      -------------------------------------------------------------
                  HL-Gap            0.1037731 Eh            2.8238 eV
             Fermi-level           -0.2866018 Eh           -7.7988 eV

 SCC (total)                   0 d,  0 h,  0 min, 20.962 sec
 SCC setup                      ...        0 min,  0.025 sec (  0.121%)
 Dispersion                     ...        0 min,  0.135 sec (  0.642%)
 classical contributions        ...        0 min,  0.007 sec (  0.031%)
 integral evaluation            ...        0 min,  0.491 sec (  2.341%)
 iterations                     ...        0 min, 19.241 sec ( 91.792%)
 molecular gradient             ...        0 min,  0.983 sec (  4.688%)
 printout                       ...        0 min,  0.012 sec (  0.059%)

         :::::::::::::::::::::::::::::::::::::::::::::::::::::
         ::                     SUMMARY                     ::
         :::::::::::::::::::::::::::::::::::::::::::::::::::::
         :: total energy            -164.596639435602 Eh    ::
         :: gradient norm              0.366026775637 Eh/a0 ::
         :: HOMO-LUMO gap              2.823810870900 eV    ::
         ::.................................................::
         :: SCC energy              -166.599939220412 Eh    ::
         :: -> isotropic ES            0.296160582609 Eh    ::
         :: -> anisotropic ES          0.023964355742 Eh    ::
         :: -> anisotropic XC          0.067725909971 Eh    ::
         :: -> dispersion             -0.132074756472 Eh    ::
         :: repulsion energy           2.003299784809 Eh    ::
         :: add. restraining           0.000000000000 Eh    ::
         :: total charge              -0.000000000000 e     ::
         :::::::::::::::::::::::::::::::::::::::::::::::::::::

           -------------------------------------------------
          |                Property Printout                |
           -------------------------------------------------

    * Orbital Energies and Occupations

         #    Occupation            Energy/Eh            Energy/eV
      -------------------------------------------------------------
         1        2.0000           -0.7049913             -19.1838
       ...           ...                  ...                  ...
       135        2.0000           -0.3973025             -10.8112
       136        2.0000           -0.3955559             -10.7636
       137        2.0000           -0.3911050             -10.6425
       138        2.0000           -0.3898458             -10.6082
       139        2.0000           -0.3839069             -10.4466
       140        2.0000           -0.3792564             -10.3201
       141        2.0000           -0.3742172             -10.1830
       142        2.0000           -0.3719081             -10.1201
       143        2.0000           -0.3623796              -9.8609
       144        2.0000           -0.3591290              -9.7724
       145        2.0000           -0.3565859              -9.7032
       146        2.0000           -0.3557706              -9.6810
       147        2.0000           -0.3384884              -9.2107 (HOMO)
       148                         -0.2347153              -6.3869 (LUMO)
       149                         -0.2291090              -6.2344
       150                         -0.2111593              -5.7459
       151                         -0.2093778              -5.6975
       152                         -0.2073550              -5.6424
       153                         -0.2047609              -5.5718
       154                         -0.1929908              -5.2515
       155                         -0.1867252              -5.0811
       156                         -0.1434700              -3.9040
       157                         -0.0697390              -1.8977
       158                         -0.0530400              -1.4433
       ...                                ...                  ...
       269                          0.7102168              19.3260
      -------------------------------------------------------------
                  HL-Gap            0.1037731 Eh            2.8238 eV
             Fermi-level           -0.2866018 Eh           -7.7988 eV

     #   Z          covCN         q      C6AA      α(0)
     1   7 N        2.693    -0.156    24.384     7.334
     2   6 C        3.739    -0.016    20.934     6.528
     3   6 C        2.755     0.271    22.416     7.753
     4   8 O        0.858    -0.417    22.031     6.293
     5   7 N        2.687    -0.165    24.576     7.363
     6   6 C        3.788     0.016    20.319     6.420
     7   6 C        2.758     0.269    22.466     7.762
     8   6 C        3.798     0.010    20.419     6.434
     9   8 O        0.859    -0.423    22.153     6.311
    10   7 N        2.746    -0.142    24.074     7.287
    11   6 C        3.821    -0.054    21.526     6.603
    12   6 C        3.724     0.015    20.426     6.454
    13   6 C        2.747     0.251    22.779     7.815
    14   6 C        3.798    -0.056    21.593     6.617
    15   6 C        3.788     0.028    20.119     6.388
    16   8 O        0.858    -0.398    21.631     6.236
    17   7 N        2.692    -0.228    25.991     7.572
    18   6 C        3.804    -0.082    22.068     6.688
    19   6 C        2.753     0.292    22.048     7.689
    20   6 C        3.246     0.069    25.510     8.181
    21   6 C        3.851     0.022    20.163     6.387
    22   8 O        0.857    -0.395    21.578     6.228
    23   7 N        1.903    -0.258    27.556     7.783
    24   6 C        3.030    -0.034    28.819     8.806
    25   7 N        2.787    -0.091    23.022     7.126
    26   6 C        3.840    -0.064    21.702     6.627
    27   6 C        3.208     0.092    25.376     8.202
    28   7 N        2.785    -0.109    23.381     7.182
    29   6 C        3.752    -0.026    21.104     6.551
    30   6 C        2.783     0.269    22.457     7.762
    31   6 C        3.826    -0.059    21.613     6.615
    32   6 C        3.786     0.008    20.466     6.444
    33   8 O        0.865    -0.453    22.761     6.397
    34   7 N        2.697    -0.195    25.226     7.459
    35   6 C        3.810    -0.064    21.724     6.635
    36   6 C        2.753     0.267    22.494     7.766
    37   6 C        3.791    -0.054    21.557     6.612
    38   6 C        3.785     0.016    20.331     6.422
    39   8 O        0.857    -0.409    21.855     6.268
    40   6 C        3.808    -0.075    21.924     6.665
    41   7 N        2.683    -0.195    25.231     7.460
    42   6 C        3.798    -0.073    21.891     6.662
    43   6 C        3.736     0.011    20.468     6.456
    44   6 C        2.750     0.282    22.216     7.718
    45   6 C        3.796    -0.068    21.809     6.650
    46   7 N        2.628    -0.340    28.767     7.966
    47   8 O        0.860    -0.429    22.262     6.326
    48   6 C        3.795    -0.054    21.557     6.611
    49   6 C        3.718     0.013    20.476     6.464
    50   7 N        2.621    -0.362    29.342     8.045
    51   6 C        3.829    -0.021    20.931     6.510
    52   6 C        3.721    -0.095    22.436     6.765
    53   6 C        3.750    -0.118    22.833     6.815
    54   1 H        0.859     0.184     1.193     1.711
    55   1 H        0.915     0.107     1.722     2.053
    56   1 H        0.927     0.051     2.307     2.375
    57   1 H        0.861     0.173     1.255     1.755
    58   1 H        0.928     0.071     2.072     2.251
    59   1 H        0.927     0.077     2.006     2.215
    60   1 H        0.927     0.065     2.147     2.291
    61   1 H        0.917     0.043     2.412     2.429
    62   1 H        0.892     0.040     2.458     2.453
    63   1 H        0.927     0.051     2.310     2.376
    64   1 H        0.925     0.045     2.380     2.413
    65   1 H        0.899     0.036     2.505     2.476
    66   1 H        0.929     0.058     2.223     2.332
    67   1 H        0.860     0.218     1.020     1.582
    68   1 H        0.923     0.063     2.159     2.298
    69   1 H        0.925     0.081     1.970     2.195
    70   1 H        0.928     0.083     1.949     2.183
    71   1 H        0.925     0.033     2.548     2.496
    72   1 H        0.925     0.063     2.160     2.298
    73   1 H        0.923     0.057     2.240     2.340
    74   1 H        0.923     0.025     2.653     2.547
    75   1 H        0.861     0.159     1.339     1.813
    76   1 H        0.926     0.050     2.325     2.384
    77   1 H        0.927     0.096     1.824     2.112
    78   1 H        0.917     0.046     2.370     2.408
    79   1 H        0.917     0.034     2.526     2.486
    80   1 H        0.929     0.072     2.064     2.246
    81   1 H        0.861     0.175     1.244     1.747
    82   1 H        0.924     0.016     2.788     2.611
    83   1 H        0.927     0.047     2.363     2.404
    84   1 H        0.908     0.027     2.635     2.539
    85   1 H        0.928     0.039     2.463     2.454
    86   1 H        0.925     0.097     1.810     2.104
    87   1 H        0.928     0.050     2.324     2.384
    88   1 H        0.928     0.048     2.339     2.391
    89   1 H        0.860     0.178     1.227     1.735
    90   1 H        0.927     0.046     2.366     2.405
    91   1 H        0.927     0.045     2.389     2.417
    92   1 H        0.929     0.052     2.290     2.366
    93   1 H        0.923     0.039     2.465     2.455
    94   1 H        0.926     0.052     2.289     2.366
    95   1 H        0.925     0.043     2.404     2.425
    96   1 H        0.859     0.124     1.590     1.975
    97   1 H        0.860     0.128     1.563     1.958
    98   1 H        0.923     0.054     2.276     2.359
    99   1 H        0.915     0.024     2.674     2.558
   100   1 H        0.916     0.029     2.609     2.526
   101   1 H        0.923     0.031     2.566     2.505
   102   1 H        0.859     0.134     1.514     1.928
   103   1 H        0.861     0.138     1.485     1.909
   104   1 H        0.916     0.021     2.727     2.583
   105   1 H        0.918     0.048     2.343     2.394
   106   1 H        0.922     0.044     2.397     2.421
   107   1 H        0.903     0.039     2.463     2.455
   108   1 H        0.923     0.051     2.311     2.378
   109   1 H        0.917     0.029     2.605     2.524
   110   1 H        0.929     0.051     2.303     2.373

 Mol. C6AA /au·bohr⁶  :     112029.748526
 Mol. C8AA /au·bohr⁸  :    2482551.285553
 Mol. α(0) /au        :        500.280511


Wiberg/Mayer (AO) data.
largest (>0.10) Wiberg bond orders for each atom

 ---------------------------------------------------------------------------
     #   Z sym  total        # sym  WBO       # sym  WBO       # sym  WBO
 ---------------------------------------------------------------------------
     1   7 N    3.451 --     7 C    1.270     2 C    0.990    54 H    0.922
                             9 O    0.191
     2   6 C    3.967 --     1 N    0.990    56 H    0.968     3 C    0.959
                            55 H    0.945
     3   6 C    3.953 --     4 O    1.699     5 N    1.227     2 C    0.959
     4   8 O    2.022 --     3 C    1.699     5 N    0.199
     5   7 N    3.439 --     3 C    1.227     6 C    0.990    57 H    0.945
                             4 O    0.199
     6   6 C    3.963 --     5 N    0.990    51 C    0.953    58 H    0.947
                            44 C    0.932
     7   6 C    3.949 --     9 O    1.702     1 N    1.270     8 C    0.897
     8   6 C    3.968 --    11 C    1.009    59 H    0.960    10 N    0.955
                             7 C    0.897
     9   8 O    2.024 --     7 C    1.702     1 N    0.191
    10   7 N    3.433 --    13 C    1.204    12 C    0.987     8 C    0.955
                            16 O    0.189
    11   6 C    3.991 --     8 C    1.009    14 C    0.987    60 H    0.973
                            61 H    0.967
    12   6 C    3.972 --    14 C    1.011    10 N    0.987    63 H    0.963
                            62 H    0.960
    13   6 C    3.944 --    16 O    1.735    10 N    1.204    15 C    0.915
    14   6 C    3.990 --    12 C    1.011    11 C    0.987    64 H    0.980
                            65 H    0.976
    15   6 C    3.973 --    17 N    0.996    66 H    0.964    18 C    0.963
                            13 C    0.915
    16   8 O    2.052 --    13 C    1.735    10 N    0.189
    17   7 N    3.343 --    19 C    1.168    15 C    0.996    67 H    0.902
                            22 O    0.178
    18   6 C    3.987 --    20 C    1.006    69 H    0.967    15 C    0.963
                            68 H    0.959
    19   6 C    3.945 --    22 O    1.758    17 N    1.168    21 C    0.936
    20   6 C    3.977 --    24 C    1.580    23 N    1.275    18 C    1.006
    21   6 C    3.966 --    26 C    0.982    25 N    0.968    70 H    0.947
                            19 C    0.936
    22   8 O    2.064 --    19 C    1.758    17 N    0.178
    23   7 N    3.032 --    27 C    1.554    20 C    1.275    28 N    0.116
    24   6 C    3.925 --    20 C    1.580    28 N    1.158    71 H    0.972
                            27 C    0.128
    25   7 N    3.508 --    30 C    1.312    21 C    0.968    29 C    0.940
                            33 O    0.197
    26   6 C    3.987 --    31 C    0.997    21 C    0.982    73 H    0.976
                            72 H    0.972
    27   6 C    3.958 --    23 N    1.554    28 N    1.268    74 H    0.962
                            24 C    0.128
    28   7 N    3.565 --    27 C    1.268    24 C    1.158    75 H    0.949
                            23 N    0.116
    29   6 C    3.958 --    31 C    1.011    76 H    0.976    77 H    0.956
                            25 N    0.940
    30   6 C    3.954 --    33 O    1.643    25 N    1.312    32 C    0.901
    31   6 C    3.991 --    29 C    1.011    26 C    0.997    78 H    0.978
                            79 H    0.977
    32   6 C    3.958 --    35 C    0.990    80 H    0.963    34 N    0.962
                            30 C    0.901
    33   8 O    2.001 --    30 C    1.643    25 N    0.197
    34   7 N    3.402 --    36 C    1.221    32 C    0.962    81 H    0.938
                            39 O    0.194
    35   6 C    3.990 --    37 C    1.006    32 C    0.990    83 H    0.971
                            82 H    0.971
    36   6 C    3.947 --    39 O    1.715    34 N    1.221    38 C    0.934
    37   6 C    3.993 --    40 C    1.009    35 C    1.006    85 H    0.977
                            84 H    0.971
    38   6 C    3.957 --    42 C    1.012    86 H    0.947    41 N    0.938
                            36 C    0.934
    39   8 O    2.040 --    36 C    1.715    34 N    0.194
    40   6 C    3.995 --    37 C    1.009    43 C    0.993    87 H    0.972
                            88 H    0.971
    41   7 N    3.426 --    44 C    1.253    38 C    0.938    89 H    0.931
                            47 O    0.197
    42   6 C    3.991 --    38 C    1.012    45 C    0.984    90 H    0.972
                            91 H    0.968
    43   6 C    3.980 --    46 N    1.024    40 C    0.993    92 H    0.976
                            93 H    0.969
    44   6 C    3.952 --    47 O    1.695    41 N    1.253     6 C    0.932
    45   6 C    3.994 --    48 C    1.016    42 C    0.984    95 H    0.980
                            94 H    0.972
    46   7 N    3.011 --    43 C    1.024    97 H    0.974    96 H    0.966
    47   8 O    2.012 --    44 C    1.695    41 N    0.197
    48   6 C    3.996 --    49 C    1.024    45 C    1.016    99 H    0.968
                            98 H    0.963
    49   6 C    3.986 --    48 C    1.024    50 N    0.998   100 H    0.974
                           101 H    0.970
    50   7 N    2.980 --    49 C    0.998   103 H    0.974   102 H    0.970
    51   6 C    3.988 --    52 C    1.015    53 C    1.002   104 H    0.966
                             6 C    0.953
    52   6 C    3.991 --    51 C    1.015   106 H    0.982   105 H    0.982
                           107 H    0.976
    53   6 C    3.990 --    51 C    1.002   110 H    0.986   109 H    0.985
                           108 H    0.982
    54   1 H    0.966 --     1 N    0.922
    55   1 H    0.988 --     2 C    0.945
    56   1 H    0.997 --     2 C    0.968
    57   1 H    0.970 --     5 N    0.945
    58   1 H    0.995 --     6 C    0.947
    59   1 H    0.994 --     8 C    0.960
    60   1 H    0.996 --    11 C    0.973
    61   1 H    0.998 --    11 C    0.967
    62   1 H    0.998 --    12 C    0.960
    63   1 H    0.997 --    12 C    0.963
    64   1 H    0.998 --    14 C    0.980
    65   1 H    0.998 --    14 C    0.976
    66   1 H    0.996 --    15 C    0.964
    67   1 H    0.953 --    17 N    0.902
    68   1 H    0.995 --    18 C    0.959
    69   1 H    0.993 --    18 C    0.967
    70   1 H    0.993 --    21 C    0.947
    71   1 H    0.999 --    24 C    0.972
    72   1 H    0.996 --    26 C    0.972
    73   1 H    0.996 --    26 C    0.976
    74   1 H    0.999 --    27 C    0.962
    75   1 H    0.974 --    28 N    0.949
    76   1 H    0.997 --    29 C    0.976
    77   1 H    0.991 --    29 C    0.956
    78   1 H    0.998 --    31 C    0.978
    79   1 H    0.998 --    31 C    0.977
    80   1 H    0.995 --    32 C    0.963
    81   1 H    0.969 --    34 N    0.938
    82   1 H    0.999 --    35 C    0.971
    83   1 H    0.998 --    35 C    0.971
    84   1 H    0.999 --    37 C    0.971
    85   1 H    0.998 --    37 C    0.977
    86   1 H    0.990 --    38 C    0.947
    87   1 H    0.997 --    40 C    0.972
    88   1 H    0.998 --    40 C    0.971
    89   1 H    0.968 --    41 N    0.931
    90   1 H    0.997 --    42 C    0.972
    91   1 H    0.998 --    42 C    0.968
    92   1 H    0.997 --    43 C    0.976
    93   1 H    0.998 --    43 C    0.969
    94   1 H    0.997 --    45 C    0.972
    95   1 H    0.998 --    45 C    0.980
    96   1 H    0.985 --    46 N    0.966
    97   1 H    0.984 --    46 N    0.974
    98   1 H    0.997 --    48 C    0.963
    99   1 H    0.999 --    48 C    0.968
   100   1 H    0.999 --    49 C    0.974
   101   1 H    0.999 --    49 C    0.970
   102   1 H    0.982 --    50 N    0.970
   103   1 H    0.981 --    50 N    0.974
   104   1 H    0.999 --    51 C    0.966
   105   1 H    0.998 --    52 C    0.982
   106   1 H    0.998 --    52 C    0.982
   107   1 H    0.998 --    52 C    0.976
   108   1 H    0.997 --    53 C    0.982
   109   1 H    0.999 --    53 C    0.985
   110   1 H    0.997 --    53 C    0.986
 ---------------------------------------------------------------------------

Topologies differ in total number of bonds
Writing topology from bond orders to xtbtopo.mol

molecular dipole:
                 x           y           z       tot (Debye)
 q only:       -0.091      -1.681       0.895
   full:       -0.234      -1.674       1.177       5.236
molecular quadrupole (traceless):
                xx          xy          yy          xz          yz          zz
 q only:       29.592     -27.112       8.180      -5.036      -0.681     -37.771
  q+dip:       40.291     -33.945       7.189       1.767       3.698     -47.481
   full:       40.044     -36.343       7.154       2.302       5.135     -47.199


           -------------------------------------------------
          | TOTAL ENERGY             -164.596639435602 Eh   |
          | GRADIENT NORM               0.366026775637 Eh/α |
          | HOMO-LUMO GAP               2.823810870900 eV   |
           -------------------------------------------------

------------------------------------------------------------------------
 * finished run on 2026/05/23 at 12:28:00.343     
------------------------------------------------------------------------
 total:
 * wall-time:     0 d,  0 h,  0 min, 21.845 sec
 *  cpu-time:     0 d,  0 h,  0 min, 27.590 sec
 * ratio c/w:     1.263 speedup
 SCF:
 * wall-time:     0 d,  0 h,  0 min, 20.964 sec
 *  cpu-time:     0 d,  0 h,  0 min, 26.595 sec
 * ratio c/w:     1.269 speedup

normal termination of xtb
