      -----------------------------------------------------------      
     |                   =====================                   |     
     |                           x T B                           |     
     |                   =====================                   |     
     |                         S. Grimme                         |     
     |          Mulliken Center for Theoretical Chemistry        |     
     |                    University of Bonn                     |     
      -----------------------------------------------------------      

   * xtb version 6.7.1 (edcfbbe) compiled by 'albert@albert-system' on 2024-07-22

   xtb is free software: you can redistribute it and/or modify it under
   the terms of the GNU Lesser General Public License as published by
   the Free Software Foundation, either version 3 of the License, or
   (at your option) any later version.
   
   xtb is distributed in the hope that it will be useful,
   but WITHOUT ANY WARRANTY; without even the implied warranty of
   MERCHANTABILITY or FITNESS FOR A PARTICULAR PURPOSE.  See the
   GNU Lesser General Public License for more details.
   
   Cite this work as:
   * C. Bannwarth, E. Caldeweyher, S. Ehlert, A. Hansen, P. Pracht,
     J. Seibert, S. Spicher, S. Grimme, WIREs Comput. Mol. Sci., 2020, 11,
     e01493. DOI: 10.1002/wcms.1493
   
   for GFN2-xTB:
   * C. Bannwarth, S. Ehlert and S. Grimme., J. Chem. Theory Comput., 2019,
     15, 1652-1671. DOI: 10.1021/acs.jctc.8b01176
   for GFN1-xTB:
   * S. Grimme, C. Bannwarth, P. Shushkov, J. Chem. Theory Comput., 2017,
     13, 1989-2009. DOI: 10.1021/acs.jctc.7b00118
   for GFN0-xTB:
   * P. Pracht, E. Caldeweyher, S. Ehlert, S. Grimme, ChemRxiv, 2019, preprint.
     DOI: 10.26434/chemrxiv.8326202.v1
   for GFN-FF:
   * S. Spicher and S. Grimme, Angew. Chem. Int. Ed., 2020, 59, 15665-15673.
     DOI: 10.1002/anie.202004239
   
   for ALPB and GBSA implicit solvation:
   * S. Ehlert, M. Stahn, S. Spicher, S. Grimme, J. Chem. Theory Comput.,
     2021, 17, 4250-4261. DOI: 10.1021/acs.jctc.1c00471
   
   for ddCOSMO and CPCM-X implicit solvation:
   * M. Stahn, S. Ehlert, S. Grimme, J. Phys. Chem. A,
     2023, XX, XXXX-XXXX. DOI: 10.1021/acs.jpca.3c04382
   
   for DFT-D4:
   * E. Caldeweyher, C. Bannwarth and S. Grimme, J. Chem. Phys., 2017,
     147, 034112. DOI: 10.1063/1.4993215
   * E. Caldeweyher, S. Ehlert, A. Hansen, H. Neugebauer, S. Spicher,
     C. Bannwarth and S. Grimme, J. Chem. Phys., 2019, 150, 154122.
     DOI: 10.1063/1.5090222
   * E. Caldeweyher, J.-M. Mewes, S. Ehlert and S. Grimme, Phys. Chem. Chem. Phys.
     2020, 22, 8499-8512. DOI: 10.1039/D0CP00502A
   
   for sTDA-xTB:
   * S. Grimme and C. Bannwarth, J. Chem. Phys., 2016, 145, 054103.
     DOI: 10.1063/1.4959605
   
   in the mass-spec context:
   * V. Asgeirsson, C. Bauer and S. Grimme, Chem. Sci., 2017, 8, 4879.
     DOI: 10.1039/c7sc00601b
   * J. Koopman and S. Grimme, ACS Omega 2019, 4, 12, 15120-15133.
     DOI: 10.1021/acsomega.9b02011
   
   for metadynamics refer to:
   * S. Grimme, J. Chem. Theory Comput., 2019, 155, 2847-2862
     DOI: 10.1021/acs.jctc.9b00143
   
   for SPH calculations refer to:
   * S. Spicher and S. Grimme, J. Chem. Theory Comput., 2021, 17, 1701-1714
     DOI: 10.1021/acs.jctc.0c01306
   
   for ONIOM refer to:
   * C. Plett, A. Katbashev, S. Ehlert, S. Grimme, M. Bursch,
     Phys. Chem. Chem. Phys., 2023, 25, 17860-17868. DOI: 10.1039/D3CP02178E
   
   for DIPRO refer to:
   * J. Kohn, N. Gildemeister, S. Grimme, D. Fazzi, A. Hansen,
     J. Chem. Phys., 2023, just accepted.
   
   for PTB refer to:
   * S. Grimme, M. Mueller, A. Hansen, J. Chem. Phys., 2023, 158, 124111.
     DOI: 10.1063/5.0137838
   
   with help from (in alphabetical order)
   P. Atkinson, C. Bannwarth, F. Bohle, G. Brandenburg, E. Caldeweyher
   M. Checinski, S. Dohm, S. Ehlert, S. Ehrlich, I. Gerasimov, C. Hölzer
   A. Katbashev, J. Kohn, J. Koopman, C. Lavigne, S. Lehtola, F. März, M. Müller,
   F. Musil, H. Neugebauer, J. Pisarek, C. Plett, P. Pracht, F. Pultar,
   J. Seibert, P. Shushkov, S. Spicher, M. Stahn, M. Steiner, T. Strunk,
   J. Stückrath, T. Rose, and J. Unsleber
   
 * started run on 2026/05/23 at 12:57:56.435     
   ID    Z sym.   atoms
    1    7 N      1, 5, 10, 17, 27, 34, 39, 43, 54, 56, 57
    2    6 C      2, 3, 6-8, 11-14, 16, 18, 21-23, 28-31, 33, 35-38, 40,
                  44-48, 50-53, 55, 58
    3    8 O      4, 9, 15, 19, 20, 24-26, 32, 41, 49
    4   16 S      42
    5    1 H      59-117

           -------------------------------------------------
          |                Calculation Setup                |
           -------------------------------------------------

          program call               : /home/xchen/software/xtb-6.7.1/xtb-dist/bin/xtb /home/xchen/Test/benchmark/md_sampled/04_7_0231_n2/snap_0148.xyz --charge -2 --gfn 2 --norestart
          coordinate file            : /home/xchen/Test/benchmark/md_sampled/04_7_0231_n2/snap_0148.xyz
          omp threads                :                    48


           -------------------------------------------------
          |                 G F N 2 - x T B                 |
           -------------------------------------------------

        Reference                      10.1021/acs.jctc.8b01176
      * Hamiltonian:
        H0-scaling (s, p, d)           1.850000    2.230000    2.230000
        zeta-weighting                 0.500000
      * Dispersion:
        s8                             2.700000
        a1                             0.520000
        a2                             5.000000
        s9                             5.000000
      * Repulsion:
        kExp                           1.500000    1.000000
        rExp                           1.000000
      * Coulomb:
        alpha                          2.000000
        third order                    shell-resolved
        anisotropic                    true
        a3                             3.000000
        a5                             4.000000
        cn-shift                       1.200000
        cn-exp                         4.000000
        max-rad                        5.000000


          ...................................................
          :                      SETUP                      :
          :.................................................:
          :  # basis functions                 297          :
          :  # atomic orbitals                 296          :
          :  # shells                          176          :
          :  # electrons                       328          :
          :  max. iterations                   250          :
          :  Hamiltonian                  GFN2-xTB          :
          :  restarted?                      false          :
          :  GBSA solvation                  false          :
          :  PC potential                    false          :
          :  electronic temp.          300.0000000     K    :
          :  accuracy                    1.0000000          :
          :  -> integral cutoff          0.2500000E+02      :
          :  -> integral neglect         0.1000000E-07      :
          :  -> SCF convergence          0.1000000E-05 Eh   :
          :  -> wf. convergence          0.1000000E-03 e    :
          :  Broyden damping             0.4000000          :
          :  net charge                         -2          :
          :  unpaired electrons                  0          :
          ...................................................

 iter      E             dE          RMSdq      gap      omega  full diag
   1   -186.9015807 -0.186902E+03  0.419E+00    3.64       0.0  T
   2   -187.4297703 -0.528190E+00  0.222E+00    2.24       1.0  T
   3   -187.4615457 -0.317753E-01  0.120E+00    1.24       1.0  T
   4   -186.5528798  0.908666E+00  0.179E+00    0.10       1.0  T
   5   -187.4693613 -0.916482E+00  0.244E-01    0.78       1.0  T
   6   -187.4719869 -0.262563E-02  0.131E-01    0.86       1.0  T
   7   -187.4719773  0.966541E-05  0.890E-02    0.91       1.0  T
   8   -187.4721331 -0.155854E-03  0.745E-02    0.91       1.0  T
   9   -187.4721923 -0.592251E-04  0.690E-02    0.87       1.0  T
  10   -187.4722493 -0.569181E-04  0.642E-02    0.83       1.0  T
  11   -187.4723014 -0.521476E-04  0.601E-02    0.79       1.0  T
  12   -187.4723557 -0.543291E-04  0.553E-02    0.74       1.0  T
  13   -187.4724226 -0.668335E-04  0.488E-02    0.67       1.0  T
  14   -187.4726102 -0.187664E-03  0.239E-02    0.42       1.0  T
  15   -187.4726802 -0.699795E-04  0.933E-03    0.25       1.0  T
  16   -187.4726998 -0.195703E-04  0.327E-03    0.28       2.8  T
  17   -187.4727022 -0.244065E-05  0.311E-04    0.27      29.7  T
  18   -187.4727022  0.273901E-07  0.443E-04    0.27      20.9  T
  19   -187.4727022 -0.452263E-07  0.486E-05    0.27     190.3  T

   *** convergence criteria satisfied after 19 iterations ***

         #    Occupation            Energy/Eh            Energy/eV
      -------------------------------------------------------------
         1        2.0000           -0.5885966             -16.0165
       ...           ...                  ...                  ...
       158        2.0000           -0.2182084              -5.9378
       159        2.0000           -0.2150703              -5.8524
       160        2.0000           -0.2133982              -5.8069
       161        2.0000           -0.2006450              -5.4598
       162        2.0000           -0.1536972              -4.1823
       163        2.0000           -0.1439206              -3.9163
       164        1.9896           -0.1169883              -3.1834 (HOMO)
       165        0.0104           -0.1070083              -2.9118 (LUMO)
       166        0.0000           -0.0999711              -2.7204
       167                         -0.0869862              -2.3670
       168                         -0.0855715              -2.3285
       169                         -0.0803820              -2.1873
       ...                                ...                  ...
       296                          0.8688354              23.6422
      -------------------------------------------------------------
                  HL-Gap            0.0099800 Eh            0.2716 eV
             Fermi-level           -0.1119986 Eh           -3.0476 eV

 SCC (total)                   0 d,  0 h,  0 min, 15.212 sec
 SCC setup                      ...        0 min,  0.021 sec (  0.135%)
 Dispersion                     ...        0 min,  0.095 sec (  0.624%)
 classical contributions        ...        0 min,  0.005 sec (  0.030%)
 integral evaluation            ...        0 min,  0.344 sec (  2.260%)
 iterations                     ...        0 min, 14.172 sec ( 93.166%)
 molecular gradient             ...        0 min,  0.563 sec (  3.702%)
 printout                       ...        0 min,  0.013 sec (  0.082%)

         :::::::::::::::::::::::::::::::::::::::::::::::::::::
         ::                     SUMMARY                     ::
         :::::::::::::::::::::::::::::::::::::::::::::::::::::
         :: total energy            -185.543625936142 Eh    ::
         :: gradient norm              0.355105316533 Eh/a0 ::
         :: HOMO-LUMO gap              0.271568716820 eV    ::
         ::.................................................::
         :: SCC energy              -187.466509983837 Eh    ::
         :: -> isotropic ES            0.709781561532 Eh    ::
         :: -> anisotropic ES          0.013291720621 Eh    ::
         :: -> anisotropic XC          0.066864976909 Eh    ::
         :: -> dispersion             -0.137652152621 Eh    ::
         :: repulsion energy           1.922884047695 Eh    ::
         :: add. restraining           0.000000000000 Eh    ::
         :: total charge              -2.000000000000 e     ::
         :::::::::::::::::::::::::::::::::::::::::::::::::::::

           -------------------------------------------------
          |                Property Printout                |
           -------------------------------------------------

    * Orbital Energies and Occupations

         #    Occupation            Energy/Eh            Energy/eV
      -------------------------------------------------------------
         1        2.0000           -0.5885966             -16.0165
       ...           ...                  ...                  ...
       152        2.0000           -0.2459011              -6.6913
       153        2.0000           -0.2411914              -6.5632
       154        2.0000           -0.2375935              -6.4652
       155        2.0000           -0.2369814              -6.4486
       156        2.0000           -0.2284774              -6.2172
       157        2.0000           -0.2235246              -6.0824
       158        2.0000           -0.2182084              -5.9378
       159        2.0000           -0.2150703              -5.8524
       160        2.0000           -0.2133982              -5.8069
       161        2.0000           -0.2006450              -5.4598
       162        2.0000           -0.1536972              -4.1823
       163        2.0000           -0.1439206              -3.9163
       164        1.9896           -0.1169883              -3.1834 (HOMO)
       165        0.0104           -0.1070083              -2.9118 (LUMO)
       166        0.0000           -0.0999711              -2.7204
       167                         -0.0869862              -2.3670
       168                         -0.0855715              -2.3285
       169                         -0.0803820              -2.1873
       170                         -0.0759536              -2.0668
       171                         -0.0657370              -1.7888
       172                         -0.0636787              -1.7328
       173                         -0.0502795              -1.3682
       174                         -0.0464587              -1.2642
       175                         -0.0322804              -0.8784
       ...                                ...                  ...
       296                          0.8688354              23.6422
      -------------------------------------------------------------
                  HL-Gap            0.0099800 Eh            0.2716 eV
             Fermi-level           -0.1119986 Eh           -3.0476 eV

     #   Z          covCN         q      C6AA      α(0)
     1   7 N        2.686    -0.212    25.613     7.517
     2   6 C        3.786     0.030    20.086     6.384
     3   6 C        2.768     0.277    22.322     7.738
     4   8 O        0.856    -0.456    22.840     6.407
     5   7 N        2.692    -0.146    24.168     7.301
     6   6 C        3.812     0.022    20.203     6.398
     7   6 C        2.746     0.272    22.403     7.750
     8   6 C        3.791     0.023    20.197     6.400
     9   8 O        0.857    -0.446    22.620     6.377
    10   7 N        2.684    -0.185    25.003     7.426
    11   6 C        3.799    -0.042    21.331     6.576
    12   6 C        2.748     0.262    22.587     7.782
    13   6 C        3.803    -0.086    22.132     6.698
    14   6 C        3.774     0.053    19.720     6.328
    15   8 O        0.858    -0.484    23.423     6.489
    16   6 C        2.684     0.355    20.979     7.496
    17   7 N        2.036    -0.408    31.484     8.323
    18   6 C        3.771    -0.123    22.891     6.818
    19   8 O        0.855    -0.609    26.332     6.880
    20   8 O        0.861    -0.600    26.114     6.852
    21   6 C        2.800     0.259    22.651     7.797
    22   6 C        2.673     0.365    20.817     7.466
    23   6 C        3.796     0.034    20.007     6.369
    24   8 O        0.856    -0.604    26.215     6.865
    25   8 O        0.857    -0.427    22.219     6.320
    26   8 O        1.636    -0.412    21.092     6.199
    27   7 N        2.709    -0.200    25.350     7.478
    28   6 C        3.807    -0.050    21.456     6.594
    29   6 C        2.744     0.274    22.364     7.743
    30   6 C        3.786    -0.047    21.431     6.594
    31   6 C        3.792     0.029    20.091     6.383
    32   8 O        0.857    -0.414    21.959     6.283
    33   6 C        3.798    -0.073    21.900     6.663
    34   7 N        2.695    -0.164    24.547     7.358
    35   6 C        3.800    -0.066    21.764     6.642
    36   6 C        3.735     0.013    20.448     6.453
    37   6 C        2.744     0.272    22.393     7.748
    38   6 C        3.780    -0.012    20.813     6.499
    39   7 N        2.621    -0.359    29.266     8.034
    40   6 C        3.783     0.008    20.468     6.444
    41   8 O        0.857    -0.458    22.876     6.413
    42  16 S        1.948    -0.243   151.451    20.713
    43   7 N        2.688    -0.203    25.406     7.486
    44   6 C        3.831    -0.019    20.893     6.504
    45   6 C        3.739    -0.040    21.379     6.597
    46   6 C        2.760     0.263    22.561     7.778
    47   6 C        3.743    -0.104    22.559     6.776
    48   6 C        3.773    -0.059    21.661     6.632
    49   8 O        0.861    -0.457    22.848     6.409
    50   6 C        3.734    -0.099    22.484     6.767
    51   6 C        3.766    -0.059    21.674     6.635
    52   6 C        3.793    -0.071    21.860     6.658
    53   6 C        3.768     0.012    20.406     6.438
    54   7 N        2.710    -0.228    25.990     7.572
    55   6 C        2.769     0.235    23.075     7.867
    56   7 N        1.780    -0.424    32.012     8.379
    57   7 N        2.680    -0.312    28.033     7.864
    58   6 C        3.728    -0.142    23.348     6.899
    59   1 H        0.861     0.238     0.930     1.511
    60   1 H        0.922     0.053     2.285     2.364
    61   1 H        0.857     0.202     1.097     1.641
    62   1 H        0.924     0.101     1.778     2.085
    63   1 H        0.923     0.064     2.158     2.298
    64   1 H        0.859     0.183     1.198     1.715
    65   1 H        0.921     0.048     2.343     2.394
    66   1 H        0.921     0.027     2.625     2.534
    67   1 H        0.921     0.025     2.665     2.553
    68   1 H        0.925     0.006     2.957     2.689
    69   1 H        0.901     0.026     2.645     2.545
    70   1 H        0.983     0.351     0.573     1.183
    71   1 H        0.925     0.059     2.211     2.325
    72   1 H        0.921     0.053     2.286     2.365
    73   1 H        0.920     0.051     2.305     2.374
    74   1 H        0.860     0.198     1.115     1.654
    75   1 H        0.922     0.019     2.745     2.591
    76   1 H        0.922     0.028     2.613     2.528
    77   1 H        0.910     0.026     2.647     2.545
    78   1 H        0.922     0.029     2.597     2.520
    79   1 H        0.917     0.035     2.512     2.479
    80   1 H        0.924     0.062     2.174     2.306
    81   1 H        0.925     0.027     2.623     2.533
    82   1 H        0.859     0.188     1.171     1.695
    83   1 H        0.914     0.075     2.028     2.228
    84   1 H        0.918     0.064     2.150     2.293
    85   1 H        0.925     0.040     2.448     2.446
    86   1 H        0.926     0.013     2.847     2.639
    87   1 H        0.928     0.060     2.202     2.320
    88   1 H        0.914     0.039     2.468     2.457
    89   1 H        0.857     0.172     1.262     1.760
    90   1 H        0.860     0.123     1.604     1.984
    91   1 H        0.926     0.070     2.090     2.260
    92   1 H        0.861     0.194     1.137     1.670
    93   1 H        0.918     0.042     2.424     2.435
    94   1 H        0.933     0.070     2.080     2.255
    95   1 H        0.928     0.057     2.238     2.339
    96   1 H        0.912     0.034     2.531     2.488
    97   1 H        0.923     0.032     2.556     2.500
    98   1 H        0.914     0.034     2.527     2.486
    99   1 H        0.922     0.056     2.252     2.347
   100   1 H        0.900     0.021     2.718     2.580
   101   1 H        0.928     0.058     2.219     2.329
   102   1 H        0.914     0.019     2.755     2.596
   103   1 H        0.923     0.033     2.542     2.493
   104   1 H        0.926     0.036     2.509     2.477
   105   1 H        0.898     0.052     2.294     2.370
   106   1 H        0.924     0.037     2.490     2.468
   107   1 H        0.924     0.039     2.459     2.452
   108   1 H        0.924     0.052     2.290     2.366
   109   1 H        0.924     0.022     2.705     2.572
   110   1 H        0.925     0.043     2.409     2.427
   111   1 H        0.860     0.181     1.211     1.724
   112   1 H        0.853     0.108     1.729     2.061
   113   1 H        0.862     0.168     1.285     1.776
   114   1 H        0.861     0.161     1.326     1.804
   115   1 H        0.926     0.091     1.871     2.139
   116   1 H        0.924     0.043     2.415     2.430
   117   1 H        0.906     0.046     2.375     2.411

 Mol. C6AA /au·bohr⁶  :     136612.963142
 Mol. C8AA /au·bohr⁸  :    3096650.240729
 Mol. α(0) /au        :        552.066699


Wiberg/Mayer (AO) data.
largest (>0.10) Wiberg bond orders for each atom

 ---------------------------------------------------------------------------
     #   Z sym  total        # sym  WBO       # sym  WBO       # sym  WBO
 ---------------------------------------------------------------------------
     1   7 N    3.438 --     7 C    1.280     2 C    0.986    59 H    0.840
                             9 O    0.200
     2   6 C    3.976 --     1 N    0.986    51 C    0.975     3 C    0.950
                            60 H    0.948
     3   6 C    3.950 --     4 O    1.645     5 N    1.279     2 C    0.950
     4   8 O    1.968 --     3 C    1.645     5 N    0.187
     5   7 N    3.474 --     3 C    1.279     6 C    1.000    61 H    0.918
                             4 O    0.187
     6   6 C    3.968 --     5 N    1.000    58 C    0.970    46 C    0.969
                            62 H    0.919
     7   6 C    3.948 --     9 O    1.672     1 N    1.280     8 C    0.918
     8   6 C    3.952 --    10 N    0.983    11 C    0.973    63 H    0.945
                             7 C    0.918
     9   8 O    2.005 --     7 C    1.672     1 N    0.200
    10   7 N    3.420 --    12 C    1.264     8 C    0.983    64 H    0.897
                            15 O    0.166
    11   6 C    3.984 --    13 C    1.016     8 C    0.973    66 H    0.971
                            65 H    0.943
    12   6 C    3.932 --    15 O    1.582    10 N    1.264    14 C    0.963
    13   6 C    3.967 --    11 C    1.016    68 H    0.974    67 H    0.965
                            16 C    0.887
    14   6 C    3.981 --    17 N    1.009    12 C    0.963    18 C    0.957
                            69 H    0.947
    15   8 O    1.967 --    12 C    1.582    10 N    0.166
    16   6 C    3.943 --    20 O    1.525    19 O    1.506    13 C    0.887
    17   7 N    3.080 --    21 C    1.471    14 C    1.009    24 O    0.223
                            70 H    0.202
    18   6 C    3.979 --    72 H    0.974    71 H    0.964    14 C    0.957
                            22 C    0.906
    19   8 O    1.818 --    16 C    1.506    20 O    0.227
    20   8 O    1.820 --    16 C    1.525    19 O    0.227
    21   6 C    3.964 --    17 N    1.471    24 O    1.452    23 C    0.957
    22   6 C    3.923 --    25 O    1.737    26 O    1.244    18 C    0.906
    23   6 C    3.954 --    28 C    0.963    27 N    0.963    73 H    0.959
                            21 C    0.957
    24   8 O    1.824 --    21 C    1.452    17 N    0.223
    25   8 O    2.035 --    22 C    1.737    26 O    0.178
    26   8 O    2.202 --    22 C    1.244    70 H    0.651    25 O    0.178
    27   7 N    3.450 --    29 C    1.282    23 C    0.963    74 H    0.908
                            32 O    0.210
    28   6 C    3.993 --    30 C    1.012    75 H    0.974    76 H    0.973
                            23 C    0.963
    29   6 C    3.956 --    32 O    1.705    27 N    1.282    31 C    0.902
    30   6 C    3.992 --    28 C    1.012    33 C    0.997    78 H    0.975
                            77 H    0.952
    31   6 C    3.957 --    35 C    1.000    34 N    0.972    79 H    0.936
                            29 C    0.902
    32   8 O    2.047 --    29 C    1.705    27 N    0.210
    33   6 C    3.991 --    36 C    1.001    30 C    0.997    81 H    0.976
                            80 H    0.952
    34   7 N    3.477 --    37 C    1.316    31 C    0.972    82 H    0.906
                            41 O    0.195
    35   6 C    3.988 --    38 C    1.019    31 C    1.000    84 H    0.962
                            83 H    0.943
    36   6 C    3.987 --    39 N    1.020    33 C    1.001    85 H    0.975
                            86 H    0.974
    37   6 C    3.943 --    41 O    1.633    34 N    1.316    40 C    0.919
    38   6 C    3.974 --    35 C    1.019    87 H    0.973    42 S    0.969
                            88 H    0.968
    39   7 N    2.993 --    36 C    1.020    90 H    0.973    89 H    0.948
    40   6 C    3.955 --    43 N    0.970    91 H    0.960    44 C    0.951
                            37 C    0.919
    41   8 O    1.971 --    37 C    1.633    34 N    0.195
    42  16 S    2.088 --    45 C    1.019    38 C    0.969
    43   7 N    3.433 --    46 C    1.250    40 C    0.970    92 H    0.913
                            49 O    0.188
    44   6 C    3.988 --    47 C    1.024    48 C    0.995    93 H    0.962
                            40 C    0.951
    45   6 C    3.980 --    42 S    1.019    96 H    0.985    95 H    0.977
                            94 H    0.971
    46   6 C    3.955 --    49 O    1.663    43 N    1.250     6 C    0.969
    47   6 C    3.989 --    44 C    1.024    98 H    0.982    97 H    0.978
                            99 H    0.969
    48   6 C    3.991 --    50 C    1.009    44 C    0.995   101 H    0.978
                           100 H    0.974
    49   8 O    1.968 --    46 C    1.663    43 N    0.188
    50   6 C    3.991 --    48 C    1.009   103 H    0.987   102 H    0.987
                           104 H    0.985
    51   6 C    3.990 --    52 C    1.001     2 C    0.975   105 H    0.974
                           106 H    0.972
    52   6 C    3.984 --    51 C    1.001    53 C    0.998   107 H    0.976
                           108 H    0.973
    53   6 C    3.974 --    52 C    0.998    54 N    0.993   110 H    0.969
                           109 H    0.965
    54   7 N    3.270 --    55 C    1.134    53 C    0.993   111 H    0.918
                            56 N    0.136
    55   6 C    3.959 --    56 N    1.683    54 N    1.134    57 N    1.118
    56   7 N    2.930 --    55 C    1.683   112 H    0.948    54 N    0.136
                            57 N    0.114
    57   7 N    3.225 --    55 C    1.118   114 H    0.957   113 H    0.956
                            56 N    0.114
    58   6 C    3.977 --   117 H    0.980   116 H    0.975   115 H    0.974
                             6 C    0.970
    59   1 H    0.943 --     1 N    0.840
    60   1 H    0.997 --     2 C    0.948
    61   1 H    0.959 --     5 N    0.918
    62   1 H    0.989 --     6 C    0.919
    63   1 H    0.995 --     8 C    0.945
    64   1 H    0.966 --    10 N    0.897
    65   1 H    0.998 --    11 C    0.943
    66   1 H    0.998 --    11 C    0.971
    67   1 H    0.999 --    13 C    0.965
    68   1 H    0.999 --    13 C    0.974
    69   1 H    0.999 --    14 C    0.947
    70   1 H    0.877 --    26 O    0.651    17 N    0.202
    71   1 H    0.996 --    18 C    0.964
    72   1 H    0.997 --    18 C    0.974
    73   1 H    0.997 --    23 C    0.959
    74   1 H    0.961 --    27 N    0.908
    75   1 H    0.999 --    28 C    0.974
    76   1 H    0.999 --    28 C    0.973
    77   1 H    0.999 --    30 C    0.952
    78   1 H    0.999 --    30 C    0.975
    79   1 H    0.998 --    31 C    0.936
    80   1 H    0.996 --    33 C    0.952
    81   1 H    0.999 --    33 C    0.976
    82   1 H    0.964 --    34 N    0.906
    83   1 H    0.993 --    35 C    0.943
    84   1 H    0.996 --    35 C    0.962
    85   1 H    0.998 --    36 C    0.975
    86   1 H    1.000 --    36 C    0.974
    87   1 H    0.996 --    38 C    0.973
    88   1 H    0.998 --    38 C    0.968
    89   1 H    0.970 --    39 N    0.948
    90   1 H    0.985 --    39 N    0.973
    91   1 H    0.995 --    40 C    0.960
    92   1 H    0.962 --    43 N    0.913
    93   1 H    0.998 --    44 C    0.962
    94   1 H    0.995 --    45 C    0.971
    95   1 H    0.997 --    45 C    0.977
    96   1 H    0.999 --    45 C    0.985
    97   1 H    0.999 --    47 C    0.978
    98   1 H    0.999 --    47 C    0.982
    99   1 H    0.997 --    47 C    0.969
   100   1 H    1.000 --    48 C    0.974
   101   1 H    0.997 --    48 C    0.978
   102   1 H    1.000 --    50 C    0.987
   103   1 H    0.999 --    50 C    0.987
   104   1 H    0.999 --    50 C    0.985
   105   1 H    0.997 --    51 C    0.974
   106   1 H    0.998 --    51 C    0.972
   107   1 H    0.998 --    52 C    0.976
   108   1 H    0.997 --    52 C    0.973
   109   1 H    1.000 --    53 C    0.965
   110   1 H    0.998 --    53 C    0.969
   111   1 H    0.967 --    54 N    0.918
   112   1 H    0.988 --    56 N    0.948
   113   1 H    0.972 --    57 N    0.956
   114   1 H    0.974 --    57 N    0.957
   115   1 H    0.992 --    58 C    0.974
   116   1 H    0.998 --    58 C    0.975
   117   1 H    0.998 --    58 C    0.980
 ---------------------------------------------------------------------------

Topologies differ in total number of bonds
Writing topology from bond orders to xtbtopo.mol

molecular dipole:
                 x           y           z       tot (Debye)
 q only:       -1.280      12.406       2.298
   full:       -0.761      12.463       2.476      32.355
molecular quadrupole (traceless):
                xx          xy          yy          xz          yz          zz
 q only:        6.725      47.513     -84.550      38.558    -123.682      77.825
  q+dip:       -4.357      57.667     -83.254      32.261    -134.806      87.611
   full:       -5.761      57.099     -82.373      31.290    -135.432      88.133


           -------------------------------------------------
          | TOTAL ENERGY             -185.543625936142 Eh   |
          | GRADIENT NORM               0.355105316533 Eh/α |
          | HOMO-LUMO GAP               0.271568716820 eV   |
           -------------------------------------------------

------------------------------------------------------------------------
 * finished run on 2026/05/23 at 12:58:12.635     
------------------------------------------------------------------------
 total:
 * wall-time:     0 d,  0 h,  0 min, 16.199 sec
 *  cpu-time:     0 d,  0 h,  0 min, 44.492 sec
 * ratio c/w:     2.747 speedup
 SCF:
 * wall-time:     0 d,  0 h,  0 min, 15.214 sec
 *  cpu-time:     0 d,  0 h,  0 min, 42.882 sec
 * ratio c/w:     2.819 speedup

normal termination of xtb
