      -----------------------------------------------------------      
     |                   =====================                   |     
     |                           x T B                           |     
     |                   =====================                   |     
     |                         S. Grimme                         |     
     |          Mulliken Center for Theoretical Chemistry        |     
     |                    University of Bonn                     |     
      -----------------------------------------------------------      

   * xtb version 6.7.1 (26dd68d) compiled by 'froitzheim@fs7' on 2026-05-14

   xtb is free software: you can redistribute it and/or modify it under
   the terms of the GNU Lesser General Public License as published by
   the Free Software Foundation, either version 3 of the License, or
   (at your option) any later version.
   
   xtb is distributed in the hope that it will be useful,
   but WITHOUT ANY WARRANTY; without even the implied warranty of
   MERCHANTABILITY or FITNESS FOR A PARTICULAR PURPOSE.  See the
   GNU Lesser General Public License for more details.
   
   Cite this work as:
   * C. Bannwarth, E. Caldeweyher, S. Ehlert, A. Hansen, P. Pracht,
     J. Seibert, S. Spicher, S. Grimme, WIREs Comput. Mol. Sci., 2020, 11,
     e01493. DOI: 10.1002/wcms.1493
   
   for g-xTB:
   * T. Froitzheim, M. Müller, A. Hansen, S. Grimme, ChemRxiv, 2025, preprint.
     DOI: 10.26434/chemrxiv-2025-bjxv
   for GFN2-xTB:
   * C. Bannwarth, S. Ehlert and S. Grimme., J. Chem. Theory Comput., 2019,
     15, 1652-1671. DOI: 10.1021/acs.jctc.8b01176
   for GFN1-xTB:
   * S. Grimme, C. Bannwarth, P. Shushkov, J. Chem. Theory Comput., 2017,
     13, 1989-2009. DOI: 10.1021/acs.jctc.7b00118
   for GFN0-xTB:
   * P. Pracht, E. Caldeweyher, S. Ehlert, S. Grimme, ChemRxiv, 2019, preprint.
     DOI: 10.26434/chemrxiv.8326202.v1
   for GFN-FF:
   * S. Spicher and S. Grimme, Angew. Chem. Int. Ed., 2020, 59, 15665-15673.
     DOI: 10.1002/anie.202004239
   
   for ALPB and GBSA implicit solvation:
   * S. Ehlert, M. Stahn, S. Spicher, S. Grimme, J. Chem. Theory Comput.,
     2021, 17, 4250-4261. DOI: 10.1021/acs.jctc.1c00471
   
   for ddCOSMO and CPCM-X implicit solvation:
   * M. Stahn, S. Ehlert, S. Grimme, J. Phys. Chem. A,
     2023, XX, XXXX-XXXX. DOI: 10.1021/acs.jpca.3c04382
   
   for DFT-D4:
   * E. Caldeweyher, C. Bannwarth and S. Grimme, J. Chem. Phys., 2017,
     147, 034112. DOI: 10.1063/1.4993215
   * E. Caldeweyher, S. Ehlert, A. Hansen, H. Neugebauer, S. Spicher,
     C. Bannwarth and S. Grimme, J. Chem. Phys., 2019, 150, 154122.
     DOI: 10.1063/1.5090222
   * E. Caldeweyher, J.-M. Mewes, S. Ehlert and S. Grimme, Phys. Chem. Chem. Phys.
     2020, 22, 8499-8512. DOI: 10.1039/D0CP00502A
   
   for sTDA-xTB:
   * S. Grimme and C. Bannwarth, J. Chem. Phys., 2016, 145, 054103.
     DOI: 10.1063/1.4959605
   
   in the mass-spec context:
   * V. Asgeirsson, C. Bauer and S. Grimme, Chem. Sci., 2017, 8, 4879.
     DOI: 10.1039/c7sc00601b
   * J. Koopman and S. Grimme, ACS Omega 2019, 4, 12, 15120-15133.
     DOI: 10.1021/acsomega.9b02011
   
   for metadynamics refer to:
   * S. Grimme, J. Chem. Theory Comput., 2019, 155, 2847-2862
     DOI: 10.1021/acs.jctc.9b00143
   
   for SPH calculations refer to:
   * S. Spicher and S. Grimme, J. Chem. Theory Comput., 2021, 17, 1701-1714
     DOI: 10.1021/acs.jctc.0c01306
   
   for ONIOM refer to:
   * C. Plett, A. Katbashev, S. Ehlert, S. Grimme, M. Bursch,
     Phys. Chem. Chem. Phys., 2023, 25, 17860-17868. DOI: 10.1039/D3CP02178E
   
   for DIPRO refer to:
   * J. Kohn, N. Gildemeister, S. Grimme, D. Fazzi, A. Hansen,
     J. Chem. Phys. 159, 144106 (2023). DOI: 10.1063/5.0167484
   
   for PTB refer to:
   * S. Grimme, M. Mueller, A. Hansen, J. Chem. Phys., 2023, 158, 124111.
     DOI: 10.1063/5.0137838
   
   with help from (in alphabetical order)
   P. Atkinson, C. Bannwarth, F. Bohle, G. Brandenburg, E. Caldeweyher,
   M. Checinski, S. Dohm, S. Ehlert, S. Ehrlich, M. Friede, T. Froitzheim,
   I. Gerasimov, C. Hölzer, A. Katbashev, J. Kohn, J. Koopman, C. Lavigne,
   S. Lehtola, F. März, M. Müller, F. Musil, H. Neugebauer, J. Pisarek,
   C. Plett, P. Pracht, F. Pultar, J. Seibert, P. Shushkov, S. Spicher,
   M. Stahn, M. Steiner, T. Strunk, J. Stückrath, T. Rose, and J. Unsleber
   
 * started run on 2026/05/23 at 12:41:16.791     
   ID    Z sym.   atoms
    1    7 N      1, 5, 13, 19, 23, 28, 35
    2    6 C      2, 3, 6-10, 12, 14, 15, 17, 20, 21, 24-26, 29, 30, 32, 33,
                  36, 37, 39, 41-44
    3    8 O      4, 11, 18, 22, 27, 31, 34, 38, 40
    4   16 S      16
    5    1 H      45-89

           -------------------------------------------------
          |                Calculation Setup                |
           -------------------------------------------------

          program call               : /home/xchen/software/xtb-6.7.1-gxtb/bin/xtb /home/xchen/Test/benchmark/md_sampled/06_7_0793_0/snap_0123.xyz --charge 0 --gxtb --norestart
          coordinate file            : /home/xchen/Test/benchmark/md_sampled/06_7_0793_0/snap_0123.xyz
          omp threads                :                    48

core increment energy         -2.3123015384480E+03 Eh
dispersion energy              2.0628588602604E-02 Eh
molecular charge               0.0000000000000E+00 e
number of electrons            2.4799999999781E+02 e
number of unpaired electrons   0.0000000000000E+00 e
wavefunction                   restricted
integral cutoff                2.6907767250513E+01 bohr
energy convergence             1.0000000000000E-06 Eh
density convergence            2.0000000000000E-05 e

------------------------------------------------------------
  cycle        total energy    energy error   density error
------------------------------------------------------------
      1     -2513.301000158  -2.0102009E+02   0.0000000E+00
      2     -2513.705299572  -4.0429941E-01   2.1984544E-02
      3     -2513.960317862  -2.5501829E-01   1.7243988E-02
      4     -2514.484898865  -5.2458100E-01   1.3600218E-02
      5     -2514.493361800  -8.4629347E-03   1.0284770E-03
      6     -2514.493912947  -5.5114750E-04   2.0621389E-04
      7     -2514.493967267  -5.4320107E-05   6.2871368E-05
      8     -2514.493971604  -4.3369753E-06   1.5127815E-05
      9     -2514.493972273  -6.6898977E-07   3.8015334E-06
------------------------------------------------------------

electronic energy             -2.0221306241379E+02 Eh
total energy                  -2.5144939722732E+03 Eh

Post processing:
 | Mayer-Wiberg bond orders
 | Molecular Multipole Moments

 total:                                  42.270 sec
 - increment                              0.000 sec (  0%)
 - repulsion                              0.021 sec (  0%)
 - dispersion                             0.709 sec (  1%)
 - coulomb                                0.215 sec (  0%)
 - exchange                               0.030 sec (  0%)
 - hamiltonian                           28.220 sec ( 66%)
 - acp                                    0.250 sec (  0%)
 - spin polarization                      0.000 sec (  0%)
 - post processing                        0.115 sec (  0%)
 - scc                                   11.749 sec ( 27%)
 - coulomb gradient                       0.057 sec (  0%)
 - dispersion gradient                    0.049 sec (  0%)
 - exchange gradient                      0.149 sec (  0%)
 - repulsion gradient                     0.007 sec (  0%)
 - acp gradient                           0.320 sec (  0%)
 - hamiltonian gradient                   0.488 sec (  1%)
 - gradient                               1.070 sec (  2%)

         :::::::::::::::::::::::::::::::::::::::::::::::::::::
         ::                     SUMMARY                     ::
         :::::::::::::::::::::::::::::::::::::::::::::::::::::
         :: total energy           -2514.493972273187 Eh    ::
         :: gradient norm              0.355058714830 Eh/a0 ::
         :: HOMO-LUMO gap              8.992666776380 eV    ::
         ::.................................................::
         :: add. restraining           0.000000000000 Eh    ::
         :: total charge              -0.000000000000 e     ::
         :::::::::::::::::::::::::::::::::::::::::::::::::::::

           -------------------------------------------------
          |                Property Printout                |
           -------------------------------------------------

    * Orbital Energies and Occupations
------------------------------------------------------------------
      #    Occupation            Energy/Eh            Energy/eV
------------------------------------------------------------------
      1        2.0000           -1.3697117             -37.2718
    ...           ...                  ...                  ...
    112        2.0000           -0.3906264             -10.6295
    113        2.0000           -0.3834535             -10.4343
    114        2.0000           -0.3832344             -10.4283
    115        2.0000           -0.3783710             -10.2960
    116        2.0000           -0.3780071             -10.2861
    117        2.0000           -0.3757304             -10.2241
    118        2.0000           -0.3734307             -10.1616
    119        2.0000           -0.3713985             -10.1063
    120        2.0000           -0.3590870              -9.7713
    121        2.0000           -0.3561500              -9.6913
    122        2.0000           -0.3547207              -9.6524
    123        2.0000           -0.3524083              -9.5895
    124        2.0000           -0.3503676              -9.5340 (HOMO)
    125                         -0.0198932              -0.5413 (LUMO)
    126                         -0.0049023              -0.1334
    127                          0.0100496               0.2735
    128                          0.0211814               0.5764
    129                          0.0257086               0.6996
    130                          0.0313342               0.8526
    131                          0.0349610               0.9513
    132                          0.0407291               1.1083
    133                          0.0430103               1.1704
    134                          0.1268278               3.4512
    135                          0.1345930               3.6625
    ...                                ...                  ...
    226                          0.7447735              20.2663
------------------------------------------------------------------
               HL-Gap            0.3304744 Eh            8.9927 eV
------------------------------------------------------------------

Atomic charges and shell populations (in atomic units):
-----------------------------------------------------------------
     #    Z                q          p(s)       p(p)       p(d)
-----------------------------------------------------------------
     1    7 N      -0.301193      1.367889   3.933304
     2    6 C      -0.009387      1.135138   2.874250
     3    6 C       0.438577      1.098143   2.463280
     4    8 O      -0.502851      1.848309   4.654542
     5    7 N      -0.357609      1.356060   4.001548
     6    6 C       0.015632      1.136500   2.847868
     7    6 C      -0.060665      1.148178   2.912487
     8    6 C       0.418179      1.099955   2.481866
     9    6 C      -0.169104      1.154367   3.014736
    10    6 C       0.005517      1.102015   2.892468
    11    8 O      -0.516017      1.851924   4.664092
    12    6 C      -0.187207      1.144705   3.042502
    13    7 N      -0.342918      1.395245   3.947672
    14    6 C      -0.132361      1.174273   2.958088
    15    6 C       0.408391      1.094259   2.497349
    16   16 S      -0.253719      1.871381   4.336455   0.045883
    17    6 C      -0.094863      1.128052   2.966811
    18    8 O      -0.518680      1.854018   4.664662
    19    7 N      -0.336321      1.353486   3.982835
    20    6 C       0.426645      1.105138   2.468217
    21    6 C       0.012704      1.130115   2.857181
    22    8 O      -0.548073      1.852930   4.695143
    23    7 N      -0.315453      1.345886   3.969567
    24    6 C      -0.265802      1.176392   3.089410
    25    6 C       0.409437      1.096762   2.493801
    26    6 C      -0.006665      1.141429   2.865237
    27    8 O      -0.533965      1.850839   4.683126
    28    7 N      -0.318028      1.360931   3.957097
    29    6 C       0.106286      1.119806   2.773908
    30    6 C       0.384208      1.111115   2.504677
    31    8 O      -0.572284      1.811083   4.761201
    32    6 C      -0.257749      1.163583   3.094166
    33    6 C      -0.007714      1.114166   2.893548
    34    8 O      -0.560018      1.856649   4.703368
    35    7 N      -0.294859      1.400023   3.894836
    36    6 C       0.089779      1.136499   2.773722
    37    6 C       0.429912      1.111269   2.458818
    38    8 O      -0.618050      1.812406   4.805644
    39    6 C      -0.261216      1.189243   3.071973
    40    8 O      -0.541346      1.838154   4.703192
    41    6 C      -0.087345      1.124971   2.962374
    42    6 C      -0.229389      1.154074   3.075315
    43    6 C      -0.206662      1.146266   3.060397
    44    6 C      -0.242579      1.163221   3.079358
    45    1 H       0.134491      0.865509
    46    1 H       0.267997      0.732003
    47    1 H       0.144256      0.855744
    48    1 H       0.108784      0.891216
    49    1 H       0.094220      0.905780
    50    1 H       0.106668      0.893332
    51    1 H       0.107934      0.892066
    52    1 H       0.141203      0.858797
    53    1 H       0.124182      0.875818
    54    1 H       0.120674      0.879326
    55    1 H       0.275601      0.724399
    56    1 H       0.115721      0.884279
    57    1 H       0.117293      0.882707
    58    1 H       0.177719      0.822281
    59    1 H       0.130359      0.869641
    60    1 H       0.132647      0.867353
    61    1 H       0.279672      0.720328
    62    1 H       0.131284      0.868716
    63    1 H       0.275478      0.724522
    64    1 H       0.123277      0.876723
    65    1 H       0.103793      0.896207
    66    1 H       0.106318      0.893682
    67    1 H       0.160137      0.839863
    68    1 H       0.272971      0.727029
    69    1 H       0.117121      0.882879
    70    1 H       0.345122      0.654878
    71    1 H       0.093317      0.906683
    72    1 H       0.096562      0.903438
    73    1 H       0.099753      0.900247
    74    1 H       0.136538      0.863462
    75    1 H       0.271012      0.728988
    76    1 H       0.095104      0.904896
    77    1 H       0.383791      0.616209
    78    1 H       0.084495      0.915505
    79    1 H       0.109743      0.890257
    80    1 H       0.090551      0.909449
    81    1 H       0.093118      0.906882
    82    1 H       0.079914      0.920086
    83    1 H       0.098652      0.901348
    84    1 H       0.080072      0.919928
    85    1 H       0.108766      0.891234
    86    1 H       0.088183      0.911817
    87    1 H       0.086153      0.913847
    88    1 H       0.100259      0.899741
    89    1 H       0.093920      0.906080
-----------------------------------------------------------------


Wiberg/Mayer (AO) data.
largest (>0.10) Wiberg bond orders for each atom

 ---------------------------------------------------------------------------
     #   Z sym  total        # sym  WBO       # sym  WBO       # sym  WBO
 ---------------------------------------------------------------------------
     1   7 N    3.331 --     8 C    1.158     2 C    0.957     7 C    0.942
                            11 C    0.152
     2   6 C    3.923 --    12 C    0.993     1 N    0.957    45 N    0.925
                             3 C    0.897
     3   6 C    3.863 --     4 C    1.719     5 N    1.178     2 C    0.897
     4   8 C    2.006 --     3 C    1.719     5 N    0.164
     5   7 N    3.294 --     3 C    1.178     6 C    0.969    46 N    0.881
                             4 C    0.164
     6   6 C    3.930 --     5 N    0.969    37 C    0.953    47 N    0.934
                            41 C    0.933
     7   6 C    3.917 --     9 C    1.002    48 N    0.958    49 N    0.955
                             1 N    0.942
     8   6 C    3.871 --    11 C    1.685     1 N    1.158    10 C    0.937
     9   6 C    3.961 --     7 C    1.002    12 C    0.998    51 N    0.961
                            50 N    0.960
    10   6 C    3.947 --    14 C    0.979    13 N    0.973     8 C    0.937
                            52 N    0.929
    11   8 C    1.975 --     8 C    1.685     1 N    0.152
    12   6 C    3.958 --     9 C    0.998     2 C    0.993    53 N    0.959
                            54 N    0.955
    13   7 N    3.259 --    15 C    1.159    10 C    0.973    55 N    0.880
                            18 C    0.152
    14   6 C    3.937 --    16 O    0.998    10 C    0.979    57 N    0.952
                            56 N    0.947
    15   6 C    3.881 --    18 C    1.689    13 N    1.159    17 C    0.978
    16  16 O    2.013 --    14 C    0.998    58 N    0.949
    17   6 C    3.925 --    15 C    0.978    19 N    0.975    59 N    0.953
                            60 N    0.928
    18   8 C    1.946 --    15 C    1.689    13 N    0.152
    19   7 N    3.309 --    20 C    1.197    17 C    0.975    61 N    0.892
                            22 C    0.155
    20   6 C    3.854 --    22 C    1.646    19 N    1.197    21 C    0.938
    21   6 C    3.929 --    23 N    0.978    24 C    0.960    20 C    0.938
                            62 N    0.936
    22   8 C    1.954 --    20 C    1.646    19 N    0.155
    23   7 N    3.355 --    25 C    1.257    21 C    0.978    63 N    0.867
                            27 C    0.167
    24   6 C    3.944 --    65 N    0.974    66 N    0.972    64 N    0.968
                            21 C    0.960
    25   6 C    3.876 --    27 C    1.659    23 N    1.257    26 C    0.890
    26   6 C    3.914 --    28 N    0.968    29 C    0.965    67 N    0.929
                            25 C    0.890
    27   8 C    1.955 --    25 C    1.659    23 N    0.167
    28   7 N    3.359 --    30 C    1.254    26 C    0.968    68 N    0.874
                            34 C    0.167
    29   6 C    3.902 --    32 C    1.013    26 C    0.965    69 N    0.945
                            31 C    0.929
    30   6 C    3.879 --    34 C    1.625    28 N    1.254    33 C    0.920
    31   8 C    1.866 --    29 C    0.929    70 N    0.862
    32   6 C    3.959 --    29 C    1.013    73 N    0.970    71 N    0.969
                            72 N    0.964
    33   6 C    3.940 --    35 N    0.983    36 C    0.956    74 N    0.931
                            30 C    0.920
    34   8 C    1.908 --    30 C    1.625    28 N    0.167
    35   7 N    3.326 --    37 C    1.223    33 C    0.983    75 N    0.885
                            40 C    0.138
    36   6 C    3.907 --    39 C    0.979    38 C    0.973    33 C    0.956
                            76 N    0.944
    37   6 C    3.841 --    40 C    1.580    35 N    1.223     6 C    0.953
    38   8 C    1.852 --    36 C    0.973    77 N    0.731
    39   6 C    3.951 --    36 C    0.979    80 N    0.978    78 N    0.973
                            79 N    0.972
    40   8 C    2.001 --    37 C    1.580    35 N    0.138    77 N    0.107
    41   6 C    3.974 --    42 C    1.029    43 C    0.993    81 N    0.938
                             6 C    0.933
    42   6 C    3.962 --    41 C    1.029    82 N    0.969    83 N    0.967
                            84 N    0.966
    43   6 C    3.961 --    44 C    1.013    41 C    0.993    86 N    0.958
                            85 N    0.949
    44   6 C    3.956 --    43 C    1.013    87 N    0.975    89 N    0.975
                            88 N    0.972
    45   1 N    0.982 --     2 C    0.925
    46   1 N    0.928 --     5 N    0.881
    47   1 N    0.979 --     6 C    0.934
    48   1 N    0.988 --     7 C    0.958
    49   1 N    0.991 --     7 C    0.955
    50   1 N    0.989 --     9 C    0.960
    51   1 N    0.988 --     9 C    0.961
    52   1 N    0.980 --    10 C    0.929
    53   1 N    0.985 --    12 C    0.959
    54   1 N    0.985 --    12 C    0.955
    55   1 N    0.924 --    13 N    0.880
    56   1 N    0.987 --    14 C    0.947
    57   1 N    0.986 --    14 C    0.952
    58   1 N    0.968 --    16 O    0.949
    59   1 N    0.983 --    17 C    0.953
    60   1 N    0.982 --    17 C    0.928
    61   1 N    0.922 --    19 N    0.892
    62   1 N    0.983 --    21 C    0.936
    63   1 N    0.924 --    23 N    0.867
    64   1 N    0.985 --    24 C    0.968
    65   1 N    0.989 --    24 C    0.974
    66   1 N    0.989 --    24 C    0.972
    67   1 N    0.974 --    26 C    0.929
    68   1 N    0.925 --    28 N    0.874
    69   1 N    0.986 --    29 C    0.945
    70   1 N    0.881 --    31 C    0.862
    71   1 N    0.991 --    32 C    0.969
    72   1 N    0.991 --    32 C    0.964
    73   1 N    0.990 --    32 C    0.970
    74   1 N    0.981 --    33 C    0.931
    75   1 N    0.927 --    35 N    0.885
    76   1 N    0.991 --    36 C    0.944
    77   1 N    0.853 --    38 C    0.731    40 C    0.107
    78   1 N    0.993 --    39 C    0.973
    79   1 N    0.988 --    39 C    0.972
    80   1 N    0.992 --    39 C    0.978
    81   1 N    0.991 --    41 C    0.938
    82   1 N    0.994 --    42 C    0.969
    83   1 N    0.990 --    42 C    0.967
    84   1 N    0.994 --    42 C    0.966
    85   1 N    0.988 --    43 C    0.949
    86   1 N    0.992 --    43 C    0.958
    87   1 N    0.993 --    44 C    0.975
    88   1 N    0.990 --    44 C    0.972
    89   1 N    0.991 --    44 C    0.975
 ---------------------------------------------------------------------------

Topologies differ in total number of bonds
Writing topology from bond orders to xtbtopo.mol

Atomic dipole moments (in atomic units):
---------------------------------------------------------
     #    Z                 x            y            z
---------------------------------------------------------
           total     1.679833    -0.463887     1.158360
---------------------------------------------------------
         |total|     2.092565     5.318769 Debye


           -------------------------------------------------
          | TOTAL ENERGY            -2514.493972273187 Eh   |
          | GRADIENT NORM               0.355058714830 Eh/α |
           -------------------------------------------------

------------------------------------------------------------------------
 * finished run on 2026/05/23 at 12:42:00.145     
------------------------------------------------------------------------
 total:
 * wall-time:     0 d,  0 h,  0 min, 43.353 sec
 *  cpu-time:     0 d,  0 h,  1 min, 12.041 sec
 * ratio c/w:     1.662 speedup
 SCF:
 * wall-time:     0 d,  0 h,  0 min, 42.886 sec
 *  cpu-time:     0 d,  0 h,  1 min, 11.617 sec
 * ratio c/w:     1.670 speedup

normal termination of xtb
