      -----------------------------------------------------------      
     |                   =====================                   |     
     |                           x T B                           |     
     |                   =====================                   |     
     |                         S. Grimme                         |     
     |          Mulliken Center for Theoretical Chemistry        |     
     |                    University of Bonn                     |     
      -----------------------------------------------------------      

   * xtb version 6.7.1 (edcfbbe) compiled by 'albert@albert-system' on 2024-07-22

   xtb is free software: you can redistribute it and/or modify it under
   the terms of the GNU Lesser General Public License as published by
   the Free Software Foundation, either version 3 of the License, or
   (at your option) any later version.
   
   xtb is distributed in the hope that it will be useful,
   but WITHOUT ANY WARRANTY; without even the implied warranty of
   MERCHANTABILITY or FITNESS FOR A PARTICULAR PURPOSE.  See the
   GNU Lesser General Public License for more details.
   
   Cite this work as:
   * C. Bannwarth, E. Caldeweyher, S. Ehlert, A. Hansen, P. Pracht,
     J. Seibert, S. Spicher, S. Grimme, WIREs Comput. Mol. Sci., 2020, 11,
     e01493. DOI: 10.1002/wcms.1493
   
   for GFN2-xTB:
   * C. Bannwarth, S. Ehlert and S. Grimme., J. Chem. Theory Comput., 2019,
     15, 1652-1671. DOI: 10.1021/acs.jctc.8b01176
   for GFN1-xTB:
   * S. Grimme, C. Bannwarth, P. Shushkov, J. Chem. Theory Comput., 2017,
     13, 1989-2009. DOI: 10.1021/acs.jctc.7b00118
   for GFN0-xTB:
   * P. Pracht, E. Caldeweyher, S. Ehlert, S. Grimme, ChemRxiv, 2019, preprint.
     DOI: 10.26434/chemrxiv.8326202.v1
   for GFN-FF:
   * S. Spicher and S. Grimme, Angew. Chem. Int. Ed., 2020, 59, 15665-15673.
     DOI: 10.1002/anie.202004239
   
   for ALPB and GBSA implicit solvation:
   * S. Ehlert, M. Stahn, S. Spicher, S. Grimme, J. Chem. Theory Comput.,
     2021, 17, 4250-4261. DOI: 10.1021/acs.jctc.1c00471
   
   for ddCOSMO and CPCM-X implicit solvation:
   * M. Stahn, S. Ehlert, S. Grimme, J. Phys. Chem. A,
     2023, XX, XXXX-XXXX. DOI: 10.1021/acs.jpca.3c04382
   
   for DFT-D4:
   * E. Caldeweyher, C. Bannwarth and S. Grimme, J. Chem. Phys., 2017,
     147, 034112. DOI: 10.1063/1.4993215
   * E. Caldeweyher, S. Ehlert, A. Hansen, H. Neugebauer, S. Spicher,
     C. Bannwarth and S. Grimme, J. Chem. Phys., 2019, 150, 154122.
     DOI: 10.1063/1.5090222
   * E. Caldeweyher, J.-M. Mewes, S. Ehlert and S. Grimme, Phys. Chem. Chem. Phys.
     2020, 22, 8499-8512. DOI: 10.1039/D0CP00502A
   
   for sTDA-xTB:
   * S. Grimme and C. Bannwarth, J. Chem. Phys., 2016, 145, 054103.
     DOI: 10.1063/1.4959605
   
   in the mass-spec context:
   * V. Asgeirsson, C. Bauer and S. Grimme, Chem. Sci., 2017, 8, 4879.
     DOI: 10.1039/c7sc00601b
   * J. Koopman and S. Grimme, ACS Omega 2019, 4, 12, 15120-15133.
     DOI: 10.1021/acsomega.9b02011
   
   for metadynamics refer to:
   * S. Grimme, J. Chem. Theory Comput., 2019, 155, 2847-2862
     DOI: 10.1021/acs.jctc.9b00143
   
   for SPH calculations refer to:
   * S. Spicher and S. Grimme, J. Chem. Theory Comput., 2021, 17, 1701-1714
     DOI: 10.1021/acs.jctc.0c01306
   
   for ONIOM refer to:
   * C. Plett, A. Katbashev, S. Ehlert, S. Grimme, M. Bursch,
     Phys. Chem. Chem. Phys., 2023, 25, 17860-17868. DOI: 10.1039/D3CP02178E
   
   for DIPRO refer to:
   * J. Kohn, N. Gildemeister, S. Grimme, D. Fazzi, A. Hansen,
     J. Chem. Phys., 2023, just accepted.
   
   for PTB refer to:
   * S. Grimme, M. Mueller, A. Hansen, J. Chem. Phys., 2023, 158, 124111.
     DOI: 10.1063/5.0137838
   
   with help from (in alphabetical order)
   P. Atkinson, C. Bannwarth, F. Bohle, G. Brandenburg, E. Caldeweyher
   M. Checinski, S. Dohm, S. Ehlert, S. Ehrlich, I. Gerasimov, C. Hölzer
   A. Katbashev, J. Kohn, J. Koopman, C. Lavigne, S. Lehtola, F. März, M. Müller,
   F. Musil, H. Neugebauer, J. Pisarek, C. Plett, P. Pracht, F. Pultar,
   J. Seibert, P. Shushkov, S. Spicher, M. Stahn, M. Steiner, T. Strunk,
   J. Stückrath, T. Rose, and J. Unsleber
   
 * started run on 2026/05/23 at 08:16:18.939     
   ID    Z sym.   atoms
    1    7 N      1, 5, 10, 17, 23, 28, 35
    2    6 C      2, 3, 6-8, 11-14, 16, 20, 21, 24-26, 29, 31-34, 36-40
    3    8 O      4, 9, 15, 18, 19, 22, 27, 30
    4    1 H      41-70

           -------------------------------------------------
          |                Calculation Setup                |
           -------------------------------------------------

          program call               : /home/xchen/software/xtb-6.7.1/xtb-dist/bin/xtb /home/xchen/Test/benchmark/md_sampled/01_6_0109_n1/snap_0112.xyz --charge -1 --gfn 2 --norestart
          coordinate file            : /home/xchen/Test/benchmark/md_sampled/01_6_0109_n1/snap_0112.xyz
          omp threads                :                    48


           -------------------------------------------------
          |                 G F N 2 - x T B                 |
           -------------------------------------------------

        Reference                      10.1021/acs.jctc.8b01176
      * Hamiltonian:
        H0-scaling (s, p, d)           1.850000    2.230000    2.230000
        zeta-weighting                 0.500000
      * Dispersion:
        s8                             2.700000
        a1                             0.520000
        a2                             5.000000
        s9                             5.000000
      * Repulsion:
        kExp                           1.500000    1.000000
        rExp                           1.000000
      * Coulomb:
        alpha                          2.000000
        third order                    shell-resolved
        anisotropic                    true
        a3                             3.000000
        a5                             4.000000
        cn-shift                       1.200000
        cn-exp                         4.000000
        max-rad                        5.000000


          ...................................................
          :                      SETUP                      :
          :.................................................:
          :  # basis functions                 190          :
          :  # atomic orbitals                 190          :
          :  # shells                          110          :
          :  # electrons                       214          :
          :  max. iterations                   250          :
          :  Hamiltonian                  GFN2-xTB          :
          :  restarted?                      false          :
          :  GBSA solvation                  false          :
          :  PC potential                    false          :
          :  electronic temp.          300.0000000     K    :
          :  accuracy                    1.0000000          :
          :  -> integral cutoff          0.2500000E+02      :
          :  -> integral neglect         0.1000000E-07      :
          :  -> SCF convergence          0.1000000E-05 Eh   :
          :  -> wf. convergence          0.1000000E-03 e    :
          :  Broyden damping             0.4000000          :
          :  net charge                         -1          :
          :  unpaired electrons                  0          :
          ...................................................

 iter      E             dE          RMSdq      gap      omega  full diag
   1   -123.0836326 -0.123084E+03  0.452E+00    3.16       0.0  T
   2   -123.4478767 -0.364244E+00  0.248E+00    2.58       1.0  T
   3   -123.4690729 -0.211961E-01  0.139E+00    1.38       1.0  T
   4   -123.4668451  0.222776E-02  0.515E-01    0.34       1.0  T
   5   -123.4836748 -0.168296E-01  0.149E-01    0.46       1.0  T
   6   -123.4841081 -0.433391E-03  0.743E-02    0.64       1.0  T
   7   -123.4842523 -0.144174E-03  0.296E-02    0.66       1.0  T
   8   -123.4842565 -0.420926E-05  0.139E-02    0.67       1.0  T
   9   -123.4842614 -0.486604E-05  0.495E-03    0.67       2.4  T
  10   -123.4842618 -0.369587E-06  0.194E-03    0.67       6.2  T
  11   -123.4842618 -0.398143E-07  0.883E-04    0.66      13.5  T
  12   -123.4842618 -0.190742E-07  0.321E-04    0.66      37.2  T

   *** convergence criteria satisfied after 12 iterations ***

         #    Occupation            Energy/Eh            Energy/eV
      -------------------------------------------------------------
         1        2.0000           -0.6611807             -17.9916
       ...           ...                  ...                  ...
       101        2.0000           -0.3193953              -8.6912
       102        2.0000           -0.3174577              -8.6385
       103        2.0000           -0.3101284              -8.4390
       104        2.0000           -0.3021050              -8.2207
       105        2.0000           -0.2279899              -6.2039
       106        2.0000           -0.2150169              -5.8509
       107        2.0000           -0.2022713              -5.5041 (HOMO)
       108        0.0000           -0.1778577              -4.8398 (LUMO)
       109                         -0.1732232              -4.7136
       110                         -0.1662668              -4.5243
       111                         -0.1532997              -4.1715
       112                         -0.1521211              -4.1394
       ...                                ...                  ...
       190                          0.8178039              22.2536
      -------------------------------------------------------------
                  HL-Gap            0.0244136 Eh            0.6643 eV
             Fermi-level           -0.1900681 Eh           -5.1720 eV

 SCC (total)                   0 d,  0 h,  0 min,  9.836 sec
 SCC setup                      ...        0 min,  0.046 sec (  0.466%)
 Dispersion                     ...        0 min,  0.095 sec (  0.969%)
 classical contributions        ...        0 min,  0.011 sec (  0.109%)
 integral evaluation            ...        0 min,  0.484 sec (  4.925%)
 iterations                     ...        0 min,  8.795 sec ( 89.421%)
 molecular gradient             ...        0 min,  0.399 sec (  4.055%)
 printout                       ...        0 min,  0.005 sec (  0.053%)

         :::::::::::::::::::::::::::::::::::::::::::::::::::::
         ::                     SUMMARY                     ::
         :::::::::::::::::::::::::::::::::::::::::::::::::::::
         :: total energy            -122.056845075879 Eh    ::
         :: gradient norm              0.303158363213 Eh/a0 ::
         :: HOMO-LUMO gap              0.664328594352 eV    ::
         ::.................................................::
         :: SCC energy              -123.483090833447 Eh    ::
         :: -> isotropic ES            0.402295021543 Eh    ::
         :: -> anisotropic ES          0.015210574428 Eh    ::
         :: -> anisotropic XC          0.032086694060 Eh    ::
         :: -> dispersion             -0.080600320968 Eh    ::
         :: repulsion energy           1.426245757567 Eh    ::
         :: add. restraining           0.000000000000 Eh    ::
         :: total charge              -1.000000000000 e     ::
         :::::::::::::::::::::::::::::::::::::::::::::::::::::

           -------------------------------------------------
          |                Property Printout                |
           -------------------------------------------------

    * Orbital Energies and Occupations

         #    Occupation            Energy/Eh            Energy/eV
      -------------------------------------------------------------
         1        2.0000           -0.6611807             -17.9916
       ...           ...                  ...                  ...
        95        2.0000           -0.3361032              -9.1458
        96        2.0000           -0.3304999              -8.9934
        97        2.0000           -0.3297110              -8.9719
        98        2.0000           -0.3276496              -8.9158
        99        2.0000           -0.3263859              -8.8814
       100        2.0000           -0.3245432              -8.8313
       101        2.0000           -0.3193953              -8.6912
       102        2.0000           -0.3174577              -8.6385
       103        2.0000           -0.3101284              -8.4390
       104        2.0000           -0.3021050              -8.2207
       105        2.0000           -0.2279899              -6.2039
       106        2.0000           -0.2150169              -5.8509
       107        2.0000           -0.2022713              -5.5041 (HOMO)
       108        0.0000           -0.1778577              -4.8398 (LUMO)
       109                         -0.1732232              -4.7136
       110                         -0.1662668              -4.5243
       111                         -0.1532997              -4.1715
       112                         -0.1521211              -4.1394
       113                         -0.1512601              -4.1160
       114                         -0.1422302              -3.8703
       115                         -0.1400835              -3.8119
       116                         -0.1071673              -2.9162
       117                         -0.0311691              -0.8482
       118                         -0.0220193              -0.5992
       ...                                ...                  ...
       190                          0.8178039              22.2536
      -------------------------------------------------------------
                  HL-Gap            0.0244136 Eh            0.6643 eV
             Fermi-level           -0.1900681 Eh           -5.1720 eV

     #   Z          covCN         q      C6AA      α(0)
     1   7 N        2.682    -0.224    25.903     7.559
     2   6 C        3.712    -0.031    21.270     6.590
     3   6 C        2.740     0.282    22.220     7.718
     4   8 O        0.860    -0.418    22.050     6.296
     5   7 N        2.685    -0.191    25.137     7.446
     6   6 C        3.763     0.031    20.096     6.390
     7   6 C        2.755     0.271    22.423     7.754
     8   6 C        3.801     0.020    20.239     6.405
     9   8 O        0.857    -0.449    22.692     6.387
    10   7 N        2.695    -0.194    25.201     7.456
    11   6 C        3.802    -0.055    21.563     6.611
    12   6 C        2.749     0.263    22.565     7.778
    13   6 C        3.752    -0.088    22.242     6.726
    14   6 C        3.733    -0.021    21.043     6.547
    15   8 O        0.861    -0.436    22.410     6.347
    16   6 C        2.678     0.366    20.798     7.463
    17   7 N        2.691    -0.167    24.603     7.367
    18   8 O        0.856    -0.583    25.716     6.799
    19   8 O        0.856    -0.566    25.310     6.745
    20   6 C        2.834     0.273    22.399     7.756
    21   6 C        3.805     0.024    20.171     6.394
    22   8 O        0.858    -0.442    22.529     6.364
    23   7 N        2.773    -0.186    25.018     7.429
    24   6 C        3.747    -0.119    22.856     6.819
    25   6 C        2.748     0.268    22.477     7.763
    26   6 C        3.725    -0.019    21.023     6.547
    27   8 O        0.859    -0.407    21.825     6.264
    28   7 N        2.693    -0.156    24.375     7.333
    29   6 C        2.766     0.257    22.682     7.800
    30   8 O        0.856    -0.457    22.852     6.409
    31   6 C        3.804    -0.059    21.629     6.621
    32   6 C        3.103    -0.032    28.671     8.774
    33   6 C        3.006     0.008    27.819     8.652
    34   6 C        3.110    -0.016    28.247     8.707
    35   7 N        2.843    -0.092    23.037     7.129
    36   6 C        3.101     0.044    26.898     8.499
    37   6 C        2.909    -0.037    28.922     8.818
    38   6 C        2.893    -0.044    29.096     8.844
    39   6 C        2.886    -0.047    29.160     8.853
    40   6 C        2.919    -0.050    29.244     8.868
    41   1 H        0.861     0.196     1.126     1.662
    42   1 H        0.923     0.093     1.851     2.128
    43   1 H        0.919     0.073     2.051     2.240
    44   1 H        0.861     0.188     1.170     1.695
    45   1 H        0.906     0.061     2.192     2.316
    46   1 H        0.926     0.064     2.150     2.293
    47   1 H        0.861     0.182     1.205     1.720
    48   1 H        0.926     0.030     2.583     2.513
    49   1 H        0.929     0.070     2.082     2.257
    50   1 H        0.903    -0.010     3.242     2.817
    51   1 H        0.909     0.017     2.781     2.609
    52   1 H        0.916     0.081     1.975     2.198
    53   1 H        0.927     0.068     2.105     2.269
    54   1 H        0.856     0.182     1.201     1.717
    55   1 H        0.925     0.068     2.108     2.270
    56   1 H        0.860     0.183     1.195     1.712
    57   1 H        0.923     0.057     2.237     2.339
    58   1 H        0.924     0.049     2.330     2.387
    59   1 H        0.921     0.061     2.189     2.314
    60   1 H        0.913     0.056     2.253     2.348
    61   1 H        0.918     0.085     1.928     2.172
    62   1 H        0.861     0.202     1.093     1.638
    63   1 H        0.926     0.071     2.072     2.251
    64   1 H        0.921     0.067     2.116     2.275
    65   1 H        0.925     0.040     2.451     2.448
    66   1 H        0.860     0.153     1.384     1.843
    67   1 H        0.928     0.037     2.495     2.470
    68   1 H        0.920     0.015     2.813     2.623
    69   1 H        0.913     0.014     2.829     2.631
    70   1 H        0.928     0.029     2.597     2.520

 Mol. C6AA /au·bohr⁶  :      56209.952109
 Mol. C8AA /au·bohr⁸  :    1292107.828842
 Mol. α(0) /au        :        359.699410


Wiberg/Mayer (AO) data.
largest (>0.10) Wiberg bond orders for each atom

 ---------------------------------------------------------------------------
     #   Z sym  total        # sym  WBO       # sym  WBO       # sym  WBO
 ---------------------------------------------------------------------------
     1   7 N    3.408 --     7 C    1.237     2 C    0.957    41 H    0.916
                             9 O    0.197
     2   6 C    3.955 --    42 H    0.965    43 H    0.961     1 N    0.957
                             3 C    0.933
     3   6 C    3.952 --     4 O    1.713     5 N    1.249     2 C    0.933
     4   8 O    2.030 --     3 C    1.713     5 N    0.191
     5   7 N    3.422 --     3 C    1.249     6 C    0.979    44 H    0.928
                             4 O    0.191
     6   6 C    3.961 --     5 N    0.979    29 C    0.969    45 H    0.946
                            31 C    0.936
     7   6 C    3.950 --     9 O    1.669     1 N    1.237     8 C    0.953
     8   6 C    3.955 --    10 N    0.970     7 C    0.953    46 H    0.952
                            11 C    0.936
     9   8 O    2.003 --     7 C    1.669     1 N    0.197
    10   7 N    3.441 --    12 C    1.251     8 C    0.970    47 H    0.932
                            15 O    0.211
    11   6 C    3.976 --    13 C    1.001    48 H    0.981    49 H    0.970
                             8 C    0.936
    12   6 C    3.955 --    15 O    1.679    10 N    1.251    14 C    0.962
    13   6 C    3.949 --    11 C    1.001    51 H    0.973    50 H    0.958
                            16 C    0.845
    14   6 C    3.964 --    17 N    0.970    53 H    0.967    12 C    0.962
                            52 H    0.955
    15   8 O    1.994 --    12 C    1.679    10 N    0.211
    16   6 C    3.945 --    19 O    1.556    18 O    1.525    13 C    0.845
    17   7 N    3.442 --    20 C    1.272    14 C    0.970    54 H    0.928
                            22 O    0.196
    18   8 O    1.849 --    16 C    1.525    19 O    0.239
    19   8 O    1.877 --    16 C    1.556    18 O    0.239
    20   6 C    3.952 --    22 O    1.664    17 N    1.272    21 C    0.924
    21   6 C    3.961 --    24 C    0.999    23 N    0.964    55 H    0.955
                            20 C    0.924
    22   8 O    1.991 --    20 C    1.664    17 N    0.196
    23   7 N    3.434 --    25 C    1.219    21 C    0.964    56 H    0.937
                            27 O    0.188
    24   6 C    3.984 --    21 C    0.999    57 H    0.981    59 H    0.980
                            58 H    0.979
    25   6 C    3.938 --    27 O    1.740    23 N    1.219    26 C    0.894
    26   6 C    3.973 --    28 N    1.047    60 H    0.958    61 H    0.948
                            25 C    0.894
    27   8 O    2.064 --    25 C    1.740    23 N    0.188
    28   7 N    3.451 --    29 C    1.232    26 C    1.047    62 H    0.917
                            30 O    0.184
    29   6 C    3.949 --    30 O    1.651    28 N    1.232     6 C    0.969
    30   8 O    1.963 --    29 C    1.651    28 N    0.184
    31   6 C    3.984 --    32 C    1.033    64 H    0.969    63 H    0.962
                             6 C    0.936
    32   6 C    3.967 --    33 C    1.539    34 C    1.207    31 C    1.033
    33   6 C    3.956 --    32 C    1.539    35 N    1.254    65 H    0.966
    34   6 C    3.980 --    36 C    1.337    37 C    1.226    32 C    1.207
    35   7 N    3.561 --    33 C    1.254    36 C    1.143    66 H    0.946
    36   6 C    3.952 --    34 C    1.337    38 C    1.265    35 N    1.143
    37   6 C    3.991 --    39 C    1.636    34 C    1.226    67 H    0.971
    38   6 C    3.987 --    40 C    1.606    36 C    1.265    68 H    0.964
    39   6 C    3.980 --    37 C    1.636    40 C    1.240    69 H    0.969
    40   6 C    3.988 --    38 C    1.606    39 C    1.240    70 H    0.977
    41   1 H    0.962 --     1 N    0.916
    42   1 H    0.991 --     2 C    0.965
    43   1 H    0.994 --     2 C    0.961
    44   1 H    0.964 --     5 N    0.928
    45   1 H    0.996 --     6 C    0.946
    46   1 H    0.996 --     8 C    0.952
    47   1 H    0.967 --    10 N    0.932
    48   1 H    0.999 --    11 C    0.981
    49   1 H    0.995 --    11 C    0.970
    50   1 H    1.000 --    13 C    0.958
    51   1 H    1.000 --    13 C    0.973
    52   1 H    0.993 --    14 C    0.955
    53   1 H    0.995 --    14 C    0.967
    54   1 H    0.967 --    17 N    0.928
    55   1 H    0.995 --    21 C    0.955
    56   1 H    0.966 --    23 N    0.937
    57   1 H    0.996 --    24 C    0.981
    58   1 H    0.997 --    24 C    0.979
    59   1 H    0.996 --    24 C    0.980
    60   1 H    0.997 --    26 C    0.958
    61   1 H    0.993 --    26 C    0.948
    62   1 H    0.959 --    28 N    0.917
    63   1 H    0.995 --    31 C    0.962
    64   1 H    0.995 --    31 C    0.969
    65   1 H    0.998 --    33 C    0.966
    66   1 H    0.976 --    35 N    0.946
    67   1 H    0.998 --    37 C    0.971
    68   1 H    0.999 --    38 C    0.964
    69   1 H    0.999 --    39 C    0.969
    70   1 H    0.999 --    40 C    0.977
 ---------------------------------------------------------------------------

Topologies differ in total number of bonds
Writing topology from bond orders to xtbtopo.mol

molecular dipole:
                 x           y           z       tot (Debye)
 q only:        2.963       9.020       7.492
   full:        2.785       9.132       7.671      31.130
molecular quadrupole (traceless):
                xx          xy          yy          xz          yz          zz
 q only:       64.182     -43.234     -49.988     -31.599    -120.696     -14.195
  q+dip:       55.305     -43.400     -44.975     -25.806    -125.803     -10.330
   full:       57.911     -43.736     -47.031     -27.530    -124.319     -10.880


           -------------------------------------------------
          | TOTAL ENERGY             -122.056845075879 Eh   |
          | GRADIENT NORM               0.303158363213 Eh/α |
          | HOMO-LUMO GAP               0.664328594352 eV   |
           -------------------------------------------------

------------------------------------------------------------------------
 * finished run on 2026/05/23 at 08:16:29.354     
------------------------------------------------------------------------
 total:
 * wall-time:     0 d,  0 h,  0 min, 10.414 sec
 *  cpu-time:     0 d,  0 h,  0 min, 16.659 sec
 * ratio c/w:     1.600 speedup
 SCF:
 * wall-time:     0 d,  0 h,  0 min,  9.837 sec
 *  cpu-time:     0 d,  0 h,  0 min, 16.144 sec
 * ratio c/w:     1.641 speedup

normal termination of xtb
