      -----------------------------------------------------------      
     |                   =====================                   |     
     |                           x T B                           |     
     |                   =====================                   |     
     |                         S. Grimme                         |     
     |          Mulliken Center for Theoretical Chemistry        |     
     |                    University of Bonn                     |     
      -----------------------------------------------------------      

   * xtb version 6.7.1 (edcfbbe) compiled by 'albert@albert-system' on 2024-07-22

   xtb is free software: you can redistribute it and/or modify it under
   the terms of the GNU Lesser General Public License as published by
   the Free Software Foundation, either version 3 of the License, or
   (at your option) any later version.
   
   xtb is distributed in the hope that it will be useful,
   but WITHOUT ANY WARRANTY; without even the implied warranty of
   MERCHANTABILITY or FITNESS FOR A PARTICULAR PURPOSE.  See the
   GNU Lesser General Public License for more details.
   
   Cite this work as:
   * C. Bannwarth, E. Caldeweyher, S. Ehlert, A. Hansen, P. Pracht,
     J. Seibert, S. Spicher, S. Grimme, WIREs Comput. Mol. Sci., 2020, 11,
     e01493. DOI: 10.1002/wcms.1493
   
   for GFN2-xTB:
   * C. Bannwarth, S. Ehlert and S. Grimme., J. Chem. Theory Comput., 2019,
     15, 1652-1671. DOI: 10.1021/acs.jctc.8b01176
   for GFN1-xTB:
   * S. Grimme, C. Bannwarth, P. Shushkov, J. Chem. Theory Comput., 2017,
     13, 1989-2009. DOI: 10.1021/acs.jctc.7b00118
   for GFN0-xTB:
   * P. Pracht, E. Caldeweyher, S. Ehlert, S. Grimme, ChemRxiv, 2019, preprint.
     DOI: 10.26434/chemrxiv.8326202.v1
   for GFN-FF:
   * S. Spicher and S. Grimme, Angew. Chem. Int. Ed., 2020, 59, 15665-15673.
     DOI: 10.1002/anie.202004239
   
   for ALPB and GBSA implicit solvation:
   * S. Ehlert, M. Stahn, S. Spicher, S. Grimme, J. Chem. Theory Comput.,
     2021, 17, 4250-4261. DOI: 10.1021/acs.jctc.1c00471
   
   for ddCOSMO and CPCM-X implicit solvation:
   * M. Stahn, S. Ehlert, S. Grimme, J. Phys. Chem. A,
     2023, XX, XXXX-XXXX. DOI: 10.1021/acs.jpca.3c04382
   
   for DFT-D4:
   * E. Caldeweyher, C. Bannwarth and S. Grimme, J. Chem. Phys., 2017,
     147, 034112. DOI: 10.1063/1.4993215
   * E. Caldeweyher, S. Ehlert, A. Hansen, H. Neugebauer, S. Spicher,
     C. Bannwarth and S. Grimme, J. Chem. Phys., 2019, 150, 154122.
     DOI: 10.1063/1.5090222
   * E. Caldeweyher, J.-M. Mewes, S. Ehlert and S. Grimme, Phys. Chem. Chem. Phys.
     2020, 22, 8499-8512. DOI: 10.1039/D0CP00502A
   
   for sTDA-xTB:
   * S. Grimme and C. Bannwarth, J. Chem. Phys., 2016, 145, 054103.
     DOI: 10.1063/1.4959605
   
   in the mass-spec context:
   * V. Asgeirsson, C. Bauer and S. Grimme, Chem. Sci., 2017, 8, 4879.
     DOI: 10.1039/c7sc00601b
   * J. Koopman and S. Grimme, ACS Omega 2019, 4, 12, 15120-15133.
     DOI: 10.1021/acsomega.9b02011
   
   for metadynamics refer to:
   * S. Grimme, J. Chem. Theory Comput., 2019, 155, 2847-2862
     DOI: 10.1021/acs.jctc.9b00143
   
   for SPH calculations refer to:
   * S. Spicher and S. Grimme, J. Chem. Theory Comput., 2021, 17, 1701-1714
     DOI: 10.1021/acs.jctc.0c01306
   
   for ONIOM refer to:
   * C. Plett, A. Katbashev, S. Ehlert, S. Grimme, M. Bursch,
     Phys. Chem. Chem. Phys., 2023, 25, 17860-17868. DOI: 10.1039/D3CP02178E
   
   for DIPRO refer to:
   * J. Kohn, N. Gildemeister, S. Grimme, D. Fazzi, A. Hansen,
     J. Chem. Phys., 2023, just accepted.
   
   for PTB refer to:
   * S. Grimme, M. Mueller, A. Hansen, J. Chem. Phys., 2023, 158, 124111.
     DOI: 10.1063/5.0137838
   
   with help from (in alphabetical order)
   P. Atkinson, C. Bannwarth, F. Bohle, G. Brandenburg, E. Caldeweyher
   M. Checinski, S. Dohm, S. Ehlert, S. Ehrlich, I. Gerasimov, C. Hölzer
   A. Katbashev, J. Kohn, J. Koopman, C. Lavigne, S. Lehtola, F. März, M. Müller,
   F. Musil, H. Neugebauer, J. Pisarek, C. Plett, P. Pracht, F. Pultar,
   J. Seibert, P. Shushkov, S. Spicher, M. Stahn, M. Steiner, T. Strunk,
   J. Stückrath, T. Rose, and J. Unsleber
   
 * started run on 2026/05/23 at 08:14:06.499     
   ID    Z sym.   atoms
    1    7 N      1, 5, 10, 17, 23, 28, 35
    2    6 C      2, 3, 6-8, 11-14, 16, 20, 21, 24-26, 29, 31-34, 36-40
    3    8 O      4, 9, 15, 18, 19, 22, 27, 30
    4    1 H      41-70

           -------------------------------------------------
          |                Calculation Setup                |
           -------------------------------------------------

          program call               : /home/xchen/software/xtb-6.7.1/xtb-dist/bin/xtb /home/xchen/Test/benchmark/md_sampled/01_6_0109_n1/snap_0047.xyz --charge -1 --gfn 2 --norestart
          coordinate file            : /home/xchen/Test/benchmark/md_sampled/01_6_0109_n1/snap_0047.xyz
          omp threads                :                    48


           -------------------------------------------------
          |                 G F N 2 - x T B                 |
           -------------------------------------------------

        Reference                      10.1021/acs.jctc.8b01176
      * Hamiltonian:
        H0-scaling (s, p, d)           1.850000    2.230000    2.230000
        zeta-weighting                 0.500000
      * Dispersion:
        s8                             2.700000
        a1                             0.520000
        a2                             5.000000
        s9                             5.000000
      * Repulsion:
        kExp                           1.500000    1.000000
        rExp                           1.000000
      * Coulomb:
        alpha                          2.000000
        third order                    shell-resolved
        anisotropic                    true
        a3                             3.000000
        a5                             4.000000
        cn-shift                       1.200000
        cn-exp                         4.000000
        max-rad                        5.000000


          ...................................................
          :                      SETUP                      :
          :.................................................:
          :  # basis functions                 190          :
          :  # atomic orbitals                 190          :
          :  # shells                          110          :
          :  # electrons                       214          :
          :  max. iterations                   250          :
          :  Hamiltonian                  GFN2-xTB          :
          :  restarted?                      false          :
          :  GBSA solvation                  false          :
          :  PC potential                    false          :
          :  electronic temp.          300.0000000     K    :
          :  accuracy                    1.0000000          :
          :  -> integral cutoff          0.2500000E+02      :
          :  -> integral neglect         0.1000000E-07      :
          :  -> SCF convergence          0.1000000E-05 Eh   :
          :  -> wf. convergence          0.1000000E-03 e    :
          :  Broyden damping             0.4000000          :
          :  net charge                         -1          :
          :  unpaired electrons                  0          :
          ...................................................

 iter      E             dE          RMSdq      gap      omega  full diag
   1   -123.0839793 -0.123084E+03  0.449E+00    3.11       0.0  T
   2   -123.4235090 -0.339530E+00  0.245E+00    2.08       1.0  T
   3   -123.4409825 -0.174735E-01  0.136E+00    0.80       1.0  T
   4   -122.4226466  0.101834E+01  0.231E+00    0.27       1.0  T
   5   -123.4438794 -0.102123E+01  0.428E-01    0.98       1.0  T
   6   -123.4541585 -0.102792E-01  0.154E-01    0.72       1.0  T
   7   -123.4543223 -0.163778E-03  0.123E-01    0.77       1.0  T
   8   -123.4544219 -0.995719E-04  0.969E-02    0.77       1.0  T
   9   -123.4545319 -0.110064E-03  0.858E-02    0.72       1.0  T
  10   -123.4546019 -0.699350E-04  0.780E-02    0.66       1.0  T
  11   -123.4546541 -0.521806E-04  0.718E-02    0.61       1.0  T
  12   -123.4547099 -0.558122E-04  0.645E-02    0.55       1.0  T
  13   -123.4548650 -0.155132E-03  0.427E-02    0.37       1.0  T
  14   -123.4547541  0.110945E-03  0.424E-02    0.18       1.0  T
  15   -123.4550787 -0.324603E-03  0.112E-02    0.25       1.1  T
  16   -123.4550937 -0.150730E-04  0.540E-03    0.22       2.2  T
  17   -123.4550987 -0.499805E-05  0.123E-03    0.23       9.7  T
  18   -123.4550980  0.726689E-06  0.237E-03    0.22       5.0  T
  19   -123.4550990 -0.100566E-05  0.112E-04    0.23     106.9  T
  20   -123.4550990  0.511616E-08  0.200E-04    0.23      59.6  T
  21   -123.4550990 -0.693878E-08  0.284E-05    0.23     420.7  T

   *** convergence criteria satisfied after 21 iterations ***

         #    Occupation            Energy/Eh            Energy/eV
      -------------------------------------------------------------
         1        2.0000           -0.6733189             -18.3219
       ...           ...                  ...                  ...
       101        2.0000           -0.3142100              -8.5501
       102        2.0000           -0.3101834              -8.4405
       103        2.0000           -0.3063150              -8.3353
       104        2.0000           -0.2940155              -8.0006
       105        2.0000           -0.2280219              -6.2048
       106        2.0000           -0.2140416              -5.8244
       107        1.9756           -0.1926313              -5.2418 (HOMO)
       108        0.0244           -0.1842810              -5.0145 (LUMO)
       109        0.0000           -0.1762320              -4.7955
       110        0.0000           -0.1757728              -4.7830
       111                         -0.1703410              -4.6352
       112                         -0.1590686              -4.3285
       ...                                ...                  ...
       190                          0.9751588              26.5354
      -------------------------------------------------------------
                  HL-Gap            0.0083503 Eh            0.2272 eV
             Fermi-level           -0.1884563 Eh           -5.1282 eV

 SCC (total)                   0 d,  0 h,  0 min, 17.794 sec
 SCC setup                      ...        0 min,  0.039 sec (  0.217%)
 Dispersion                     ...        0 min,  0.075 sec (  0.421%)
 classical contributions        ...        0 min,  0.008 sec (  0.047%)
 integral evaluation            ...        0 min,  0.380 sec (  2.136%)
 iterations                     ...        0 min, 16.672 sec ( 93.696%)
 molecular gradient             ...        0 min,  0.612 sec (  3.442%)
 printout                       ...        0 min,  0.007 sec (  0.040%)

         :::::::::::::::::::::::::::::::::::::::::::::::::::::
         ::                     SUMMARY                     ::
         :::::::::::::::::::::::::::::::::::::::::::::::::::::
         :: total energy            -122.011364675048 Eh    ::
         :: gradient norm              0.334838606320 Eh/a0 ::
         :: HOMO-LUMO gap              0.227222289137 eV    ::
         ::.................................................::
         :: SCC energy              -123.453764302288 Eh    ::
         :: -> isotropic ES            0.396451883467 Eh    ::
         :: -> anisotropic ES          0.015298333414 Eh    ::
         :: -> anisotropic XC          0.031441713173 Eh    ::
         :: -> dispersion             -0.080097445348 Eh    ::
         :: repulsion energy           1.442399627240 Eh    ::
         :: add. restraining           0.000000000000 Eh    ::
         :: total charge              -1.000000000000 e     ::
         :::::::::::::::::::::::::::::::::::::::::::::::::::::

           -------------------------------------------------
          |                Property Printout                |
           -------------------------------------------------

    * Orbital Energies and Occupations

         #    Occupation            Energy/Eh            Energy/eV
      -------------------------------------------------------------
         1        2.0000           -0.6733189             -18.3219
       ...           ...                  ...                  ...
        95        2.0000           -0.3390343              -9.2256
        96        2.0000           -0.3353485              -9.1253
        97        2.0000           -0.3291678              -8.9571
        98        2.0000           -0.3238568              -8.8126
        99        2.0000           -0.3229672              -8.7884
       100        2.0000           -0.3215927              -8.7510
       101        2.0000           -0.3142100              -8.5501
       102        2.0000           -0.3101834              -8.4405
       103        2.0000           -0.3063150              -8.3353
       104        2.0000           -0.2940155              -8.0006
       105        2.0000           -0.2280219              -6.2048
       106        2.0000           -0.2140416              -5.8244
       107        1.9756           -0.1926313              -5.2418 (HOMO)
       108        0.0244           -0.1842810              -5.0145 (LUMO)
       109        0.0000           -0.1762320              -4.7955
       110        0.0000           -0.1757728              -4.7830
       111                         -0.1703410              -4.6352
       112                         -0.1590686              -4.3285
       113                         -0.1568363              -4.2677
       114                         -0.1478334              -4.0228
       115                         -0.1316623              -3.5827
       116                         -0.1149873              -3.1290
       117                         -0.0468859              -1.2758
       118                          0.0005734               0.0156
       ...                                ...                  ...
       190                          0.9751588              26.5354
      -------------------------------------------------------------
                  HL-Gap            0.0083503 Eh            0.2272 eV
             Fermi-level           -0.1884563 Eh           -5.1282 eV

     #   Z          covCN         q      C6AA      α(0)
     1   7 N        2.676    -0.199    25.327     7.474
     2   6 C        3.743    -0.014    20.904     6.522
     3   6 C        2.741     0.278    22.302     7.732
     4   8 O        0.858    -0.421    22.108     6.304
     5   7 N        2.675    -0.207    25.506     7.501
     6   6 C        3.766     0.007    20.492     6.452
     7   6 C        2.739     0.275    22.349     7.740
     8   6 C        3.781     0.019    20.284     6.416
     9   8 O        0.858    -0.403    21.745     6.252
    10   7 N        2.688    -0.176    24.811     7.398
    11   6 C        3.793    -0.052    21.507     6.604
    12   6 C        2.763     0.271    22.414     7.753
    13   6 C        3.711    -0.074    22.062     6.712
    14   6 C        3.739    -0.029    21.165     6.564
    15   8 O        0.863    -0.426    22.207     6.318
    16   6 C        2.681     0.383    20.517     7.412
    17   7 N        2.714    -0.171    24.690     7.380
    18   8 O        0.858    -0.548    24.886     6.688
    19   8 O        0.857    -0.595    25.996     6.836
    20   6 C        2.744     0.257    22.681     7.798
    21   6 C        3.794     0.002    20.548     6.455
    22   8 O        0.856    -0.415    21.980     6.286
    23   7 N        2.685    -0.200    25.348     7.478
    24   6 C        3.751    -0.119    22.847     6.817
    25   6 C        2.748     0.279    22.271     7.727
    26   6 C        3.728    -0.025    21.114     6.560
    27   8 O        0.858    -0.393    21.534     6.222
    28   7 N        2.692    -0.148    24.207     7.307
    29   6 C        2.769     0.274    22.370     7.746
    30   8 O        0.859    -0.462    22.955     6.424
    31   6 C        3.791    -0.068    21.812     6.651
    32   6 C        3.116    -0.026    28.479     8.741
    33   6 C        3.036     0.004    27.891     8.662
    34   6 C        3.119    -0.022    28.384     8.726
    35   7 N        2.819    -0.101    23.216     7.156
    36   6 C        3.102     0.048    26.797     8.483
    37   6 C        2.884    -0.027    28.683     8.780
    38   6 C        2.894    -0.048    29.178     8.856
    39   6 C        2.901    -0.046    29.139     8.851
    40   6 C        2.897    -0.055    29.375     8.886
    41   1 H        0.859     0.194     1.139     1.672
    42   1 H        0.925     0.077     2.012     2.218
    43   1 H        0.926     0.055     2.261     2.351
    44   1 H        0.858     0.183     1.197     1.714
    45   1 H        0.925     0.074     2.043     2.235
    46   1 H        0.927     0.068     2.103     2.267
    47   1 H        0.860     0.184     1.192     1.710
    48   1 H        0.910     0.021     2.718     2.579
    49   1 H        0.924     0.077     2.015     2.220
    50   1 H        0.913    -0.026     3.554     2.949
    51   1 H        0.842    -0.042     3.946     3.114
    52   1 H        0.925     0.072     2.065     2.247
    53   1 H        0.929     0.066     2.129     2.281
    54   1 H        0.860     0.194     1.136     1.670
    55   1 H        0.928     0.081     1.969     2.194
    56   1 H        0.861     0.178     1.228     1.736
    57   1 H        0.926     0.054     2.273     2.357
    58   1 H        0.927     0.062     2.180     2.309
    59   1 H        0.928     0.065     2.140     2.288
    60   1 H        0.897     0.052     2.306     2.376
    61   1 H        0.928     0.077     2.011     2.218
    62   1 H        0.854     0.216     1.028     1.588
    63   1 H        0.927     0.060     2.196     2.318
    64   1 H        0.925     0.059     2.213     2.326
    65   1 H        0.927     0.031     2.568     2.506
    66   1 H        0.859     0.152     1.387     1.845
    67   1 H        0.917     0.025     2.662     2.552
    68   1 H        0.911    -0.000     3.067     2.740
    69   1 H        0.927     0.034     2.534     2.489
    70   1 H        0.927     0.032     2.551     2.498

 Mol. C6AA /au·bohr⁶  :      56364.565903
 Mol. C8AA /au·bohr⁸  :    1294093.681638
 Mol. α(0) /au        :        360.239341


Wiberg/Mayer (AO) data.
largest (>0.10) Wiberg bond orders for each atom

 ---------------------------------------------------------------------------
     #   Z sym  total        # sym  WBO       # sym  WBO       # sym  WBO
 ---------------------------------------------------------------------------
     1   7 N    3.334 --     7 C    1.215     2 C    0.969    41 H    0.917
                             9 O    0.166
     2   6 C    3.964 --     1 N    0.969    43 H    0.968    42 H    0.960
                             3 C    0.954
     3   6 C    3.949 --     4 O    1.690     5 N    1.240     2 C    0.954
     4   8 O    2.023 --     3 C    1.690     5 N    0.199
     5   7 N    3.401 --     3 C    1.240     6 C    0.959    44 H    0.935
                             4 O    0.199
     6   6 C    3.950 --    45 H    0.968     5 N    0.959    31 C    0.933
                            29 C    0.932
     7   6 C    3.938 --     9 O    1.754     1 N    1.215     8 C    0.893
     8   6 C    3.952 --    11 C    0.994    46 H    0.954    10 N    0.951
                             7 C    0.893
     9   8 O    2.047 --     7 C    1.754     1 N    0.166
    10   7 N    3.462 --    12 C    1.295     8 C    0.951    47 H    0.933
                            15 O    0.208
    11   6 C    3.981 --    13 C    1.001     8 C    0.994    48 H    0.970
                            49 H    0.950
    12   6 C    3.951 --    15 O    1.693    10 N    1.295    14 C    0.906
    13   6 C    3.924 --    11 C    1.001    51 H    0.969    50 H    0.960
                            16 C    0.840
    14   6 C    3.962 --    17 N    0.990    53 H    0.971    52 H    0.961
                            12 C    0.906
    15   8 O    2.024 --    12 C    1.693    10 N    0.208
    16   6 C    3.945 --    18 O    1.582    19 O    1.507    13 C    0.840
    17   7 N    3.445 --    20 C    1.251    14 C    0.990    54 H    0.919
                            22 O    0.209
    18   8 O    1.901 --    16 C    1.582    19 O    0.237
    19   8 O    1.829 --    16 C    1.507    18 O    0.237
    20   6 C    3.952 --    22 O    1.708    17 N    1.251    21 C    0.919
    21   6 C    3.957 --    24 C    0.987    23 N    0.978    55 H    0.945
                            20 C    0.919
    22   8 O    2.029 --    20 C    1.708    17 N    0.209
    23   7 N    3.420 --    25 C    1.226    21 C    0.978    56 H    0.940
                            27 O    0.199
    24   6 C    3.989 --    21 C    0.987    57 H    0.986    58 H    0.985
                            59 H    0.985
    25   6 C    3.943 --    27 O    1.749    23 N    1.226    26 C    0.895
    26   6 C    3.970 --    28 N    1.014    61 H    0.963    60 H    0.962
                            25 C    0.895
    27   8 O    2.096 --    25 C    1.749    23 N    0.199
    28   7 N    3.470 --    29 C    1.303    26 C    1.014    62 H    0.901
                            30 O    0.189
    29   6 C    3.952 --    30 O    1.638    28 N    1.303     6 C    0.932
    30   8 O    1.963 --    29 C    1.638    28 N    0.189
    31   6 C    3.987 --    32 C    1.028    63 H    0.971    64 H    0.970
                             6 C    0.933
    32   6 C    3.973 --    33 C    1.593    34 C    1.189    31 C    1.028
    33   6 C    3.950 --    32 C    1.593    35 N    1.194    65 H    0.968
    34   6 C    3.973 --    36 C    1.314    37 C    1.244    32 C    1.189
    35   7 N    3.514 --    33 C    1.194    36 C    1.161    66 H    0.941
    36   6 C    3.959 --    34 C    1.314    38 C    1.294    35 N    1.161
    37   6 C    3.978 --    39 C    1.611    34 C    1.244    67 H    0.963
    38   6 C    3.970 --    40 C    1.556    36 C    1.294    68 H    0.963
    39   6 C    3.984 --    37 C    1.611    40 C    1.265    69 H    0.973
    40   6 C    3.972 --    38 C    1.556    39 C    1.265    70 H    0.976
    41   1 H    0.962 --     1 N    0.917
    42   1 H    0.994 --     2 C    0.960
    43   1 H    0.997 --     2 C    0.968
    44   1 H    0.966 --     5 N    0.935
    45   1 H    0.994 --     6 C    0.968
    46   1 H    0.995 --     8 C    0.954
    47   1 H    0.966 --    10 N    0.933
    48   1 H    1.000 --    11 C    0.970
    49   1 H    0.992 --    11 C    0.950
    50   1 H    0.999 --    13 C    0.960
    51   1 H    0.998 --    13 C    0.969
    52   1 H    0.994 --    14 C    0.961
    53   1 H    0.995 --    14 C    0.971
    54   1 H    0.962 --    17 N    0.919
    55   1 H    0.993 --    21 C    0.945
    56   1 H    0.968 --    23 N    0.940
    57   1 H    0.997 --    24 C    0.986
    58   1 H    0.996 --    24 C    0.985
    59   1 H    0.996 --    24 C    0.985
    60   1 H    0.997 --    26 C    0.962
    61   1 H    0.994 --    26 C    0.963
    62   1 H    0.953 --    28 N    0.901
    63   1 H    0.996 --    31 C    0.971
    64   1 H    0.996 --    31 C    0.970
    65   1 H    0.998 --    33 C    0.968
    66   1 H    0.976 --    35 N    0.941
    67   1 H    0.999 --    37 C    0.963
    68   1 H    0.999 --    38 C    0.963
    69   1 H    0.998 --    39 C    0.973
    70   1 H    0.999 --    40 C    0.976
 ---------------------------------------------------------------------------

Topologies differ in total number of bonds
Writing topology from bond orders to xtbtopo.mol

molecular dipole:
                 x           y           z       tot (Debye)
 q only:        4.732       9.700       8.010
   full:        4.908       9.828       7.872      34.351
molecular quadrupole (traceless):
                xx          xy          yy          xz          yz          zz
 q only:       60.039     -72.292     -41.050     -61.000    -144.972     -18.989
  q+dip:       49.343     -71.747     -30.553     -59.985    -149.561     -18.791
   full:       52.847     -72.348     -32.958     -61.635    -148.692     -19.890


           -------------------------------------------------
          | TOTAL ENERGY             -122.011364675048 Eh   |
          | GRADIENT NORM               0.334838606320 Eh/α |
          | HOMO-LUMO GAP               0.227222289137 eV   |
           -------------------------------------------------

------------------------------------------------------------------------
 * finished run on 2026/05/23 at 08:14:24.963     
------------------------------------------------------------------------
 total:
 * wall-time:     0 d,  0 h,  0 min, 18.463 sec
 *  cpu-time:     0 d,  0 h,  0 min, 26.205 sec
 * ratio c/w:     1.419 speedup
 SCF:
 * wall-time:     0 d,  0 h,  0 min, 17.795 sec
 *  cpu-time:     0 d,  0 h,  0 min, 25.563 sec
 * ratio c/w:     1.437 speedup

normal termination of xtb
