      -----------------------------------------------------------      
     |                   =====================                   |     
     |                           x T B                           |     
     |                   =====================                   |     
     |                         S. Grimme                         |     
     |          Mulliken Center for Theoretical Chemistry        |     
     |                    University of Bonn                     |     
      -----------------------------------------------------------      

   * xtb version 6.7.1 (edcfbbe) compiled by 'albert@albert-system' on 2024-07-22

   xtb is free software: you can redistribute it and/or modify it under
   the terms of the GNU Lesser General Public License as published by
   the Free Software Foundation, either version 3 of the License, or
   (at your option) any later version.
   
   xtb is distributed in the hope that it will be useful,
   but WITHOUT ANY WARRANTY; without even the implied warranty of
   MERCHANTABILITY or FITNESS FOR A PARTICULAR PURPOSE.  See the
   GNU Lesser General Public License for more details.
   
   Cite this work as:
   * C. Bannwarth, E. Caldeweyher, S. Ehlert, A. Hansen, P. Pracht,
     J. Seibert, S. Spicher, S. Grimme, WIREs Comput. Mol. Sci., 2020, 11,
     e01493. DOI: 10.1002/wcms.1493
   
   for GFN2-xTB:
   * C. Bannwarth, S. Ehlert and S. Grimme., J. Chem. Theory Comput., 2019,
     15, 1652-1671. DOI: 10.1021/acs.jctc.8b01176
   for GFN1-xTB:
   * S. Grimme, C. Bannwarth, P. Shushkov, J. Chem. Theory Comput., 2017,
     13, 1989-2009. DOI: 10.1021/acs.jctc.7b00118
   for GFN0-xTB:
   * P. Pracht, E. Caldeweyher, S. Ehlert, S. Grimme, ChemRxiv, 2019, preprint.
     DOI: 10.26434/chemrxiv.8326202.v1
   for GFN-FF:
   * S. Spicher and S. Grimme, Angew. Chem. Int. Ed., 2020, 59, 15665-15673.
     DOI: 10.1002/anie.202004239
   
   for ALPB and GBSA implicit solvation:
   * S. Ehlert, M. Stahn, S. Spicher, S. Grimme, J. Chem. Theory Comput.,
     2021, 17, 4250-4261. DOI: 10.1021/acs.jctc.1c00471
   
   for ddCOSMO and CPCM-X implicit solvation:
   * M. Stahn, S. Ehlert, S. Grimme, J. Phys. Chem. A,
     2023, XX, XXXX-XXXX. DOI: 10.1021/acs.jpca.3c04382
   
   for DFT-D4:
   * E. Caldeweyher, C. Bannwarth and S. Grimme, J. Chem. Phys., 2017,
     147, 034112. DOI: 10.1063/1.4993215
   * E. Caldeweyher, S. Ehlert, A. Hansen, H. Neugebauer, S. Spicher,
     C. Bannwarth and S. Grimme, J. Chem. Phys., 2019, 150, 154122.
     DOI: 10.1063/1.5090222
   * E. Caldeweyher, J.-M. Mewes, S. Ehlert and S. Grimme, Phys. Chem. Chem. Phys.
     2020, 22, 8499-8512. DOI: 10.1039/D0CP00502A
   
   for sTDA-xTB:
   * S. Grimme and C. Bannwarth, J. Chem. Phys., 2016, 145, 054103.
     DOI: 10.1063/1.4959605
   
   in the mass-spec context:
   * V. Asgeirsson, C. Bauer and S. Grimme, Chem. Sci., 2017, 8, 4879.
     DOI: 10.1039/c7sc00601b
   * J. Koopman and S. Grimme, ACS Omega 2019, 4, 12, 15120-15133.
     DOI: 10.1021/acsomega.9b02011
   
   for metadynamics refer to:
   * S. Grimme, J. Chem. Theory Comput., 2019, 155, 2847-2862
     DOI: 10.1021/acs.jctc.9b00143
   
   for SPH calculations refer to:
   * S. Spicher and S. Grimme, J. Chem. Theory Comput., 2021, 17, 1701-1714
     DOI: 10.1021/acs.jctc.0c01306
   
   for ONIOM refer to:
   * C. Plett, A. Katbashev, S. Ehlert, S. Grimme, M. Bursch,
     Phys. Chem. Chem. Phys., 2023, 25, 17860-17868. DOI: 10.1039/D3CP02178E
   
   for DIPRO refer to:
   * J. Kohn, N. Gildemeister, S. Grimme, D. Fazzi, A. Hansen,
     J. Chem. Phys., 2023, just accepted.
   
   for PTB refer to:
   * S. Grimme, M. Mueller, A. Hansen, J. Chem. Phys., 2023, 158, 124111.
     DOI: 10.1063/5.0137838
   
   with help from (in alphabetical order)
   P. Atkinson, C. Bannwarth, F. Bohle, G. Brandenburg, E. Caldeweyher
   M. Checinski, S. Dohm, S. Ehlert, S. Ehrlich, I. Gerasimov, C. Hölzer
   A. Katbashev, J. Kohn, J. Koopman, C. Lavigne, S. Lehtola, F. März, M. Müller,
   F. Musil, H. Neugebauer, J. Pisarek, C. Plett, P. Pracht, F. Pultar,
   J. Seibert, P. Shushkov, S. Spicher, M. Stahn, M. Steiner, T. Strunk,
   J. Stückrath, T. Rose, and J. Unsleber
   
 * started run on 2026/05/23 at 08:18:29.934     
   ID    Z sym.   atoms
    1    7 N      1, 5, 10, 17, 23, 28, 35
    2    6 C      2, 3, 6-8, 11-14, 16, 20, 21, 24-26, 29, 31-34, 36-40
    3    8 O      4, 9, 15, 18, 19, 22, 27, 30
    4    1 H      41-70

           -------------------------------------------------
          |                Calculation Setup                |
           -------------------------------------------------

          program call               : /home/xchen/software/xtb-6.7.1/xtb-dist/bin/xtb /home/xchen/Test/benchmark/md_sampled/01_6_0109_n1/snap_0183.xyz --charge -1 --gfn 2 --norestart
          coordinate file            : /home/xchen/Test/benchmark/md_sampled/01_6_0109_n1/snap_0183.xyz
          omp threads                :                    48


           -------------------------------------------------
          |                 G F N 2 - x T B                 |
           -------------------------------------------------

        Reference                      10.1021/acs.jctc.8b01176
      * Hamiltonian:
        H0-scaling (s, p, d)           1.850000    2.230000    2.230000
        zeta-weighting                 0.500000
      * Dispersion:
        s8                             2.700000
        a1                             0.520000
        a2                             5.000000
        s9                             5.000000
      * Repulsion:
        kExp                           1.500000    1.000000
        rExp                           1.000000
      * Coulomb:
        alpha                          2.000000
        third order                    shell-resolved
        anisotropic                    true
        a3                             3.000000
        a5                             4.000000
        cn-shift                       1.200000
        cn-exp                         4.000000
        max-rad                        5.000000


          ...................................................
          :                      SETUP                      :
          :.................................................:
          :  # basis functions                 190          :
          :  # atomic orbitals                 190          :
          :  # shells                          110          :
          :  # electrons                       214          :
          :  max. iterations                   250          :
          :  Hamiltonian                  GFN2-xTB          :
          :  restarted?                      false          :
          :  GBSA solvation                  false          :
          :  PC potential                    false          :
          :  electronic temp.          300.0000000     K    :
          :  accuracy                    1.0000000          :
          :  -> integral cutoff          0.2500000E+02      :
          :  -> integral neglect         0.1000000E-07      :
          :  -> SCF convergence          0.1000000E-05 Eh   :
          :  -> wf. convergence          0.1000000E-03 e    :
          :  Broyden damping             0.4000000          :
          :  net charge                         -1          :
          :  unpaired electrons                  0          :
          ...................................................

 iter      E             dE          RMSdq      gap      omega  full diag
   1   -123.1066235 -0.123107E+03  0.457E+00    3.29       0.0  T
   2   -123.5106847 -0.404061E+00  0.253E+00    2.28       1.0  T
   3   -123.5364725 -0.257878E-01  0.144E+00    1.35       1.0  T
   4   -122.9950104  0.541462E+00  0.179E+00    0.04       1.0  T
   5   -123.5388378 -0.543827E+00  0.375E-01    1.12       1.0  T
   6   -123.5470758 -0.823806E-02  0.158E-01    0.97       1.0  T
   7   -123.5473387 -0.262921E-03  0.115E-01    1.01       1.0  T
   8   -123.5474985 -0.159763E-03  0.899E-02    0.95       1.0  T
   9   -123.5476282 -0.129665E-03  0.748E-02    0.89       1.0  T
  10   -123.5477243 -0.961552E-04  0.634E-02    0.82       1.0  T
  11   -123.5477820 -0.577176E-04  0.557E-02    0.76       1.0  T
  12   -123.5478621 -0.801012E-04  0.430E-02    0.67       1.0  T
  13   -123.5479563 -0.942014E-04  0.205E-02    0.51       1.0  T
  14   -123.5479850 -0.286075E-04  0.236E-03    0.39       5.1  T
  15   -123.5479842  0.764429E-06  0.327E-03    0.36       3.7  T
  16   -123.5479851 -0.941595E-06  0.413E-04    0.38      28.9  T
  17   -123.5479851  0.146343E-07  0.513E-04    0.38      23.3  T

   *** convergence criteria satisfied after 17 iterations ***

         #    Occupation            Energy/Eh            Energy/eV
      -------------------------------------------------------------
         1        2.0000           -0.6583926             -17.9158
       ...           ...                  ...                  ...
       101        2.0000           -0.3229766              -8.7886
       102        2.0000           -0.3125579              -8.5051
       103        2.0000           -0.3037108              -8.2644
       104        2.0000           -0.2986101              -8.1256
       105        2.0000           -0.2267588              -6.1704
       106        2.0000           -0.2119931              -5.7686
       107        1.9988           -0.1967621              -5.3542 (HOMO)
       108        0.0012           -0.1827214              -4.9721 (LUMO)
       109                         -0.1719536              -4.6791
       110                         -0.1711319              -4.6567
       111                         -0.1678631              -4.5678
       112                         -0.1594356              -4.3385
       ...                                ...                  ...
       190                          0.9107929              24.7839
      -------------------------------------------------------------
                  HL-Gap            0.0140407 Eh            0.3821 eV
             Fermi-level           -0.1897418 Eh           -5.1631 eV

 SCC (total)                   0 d,  0 h,  0 min, 14.686 sec
 SCC setup                      ...        0 min,  0.032 sec (  0.217%)
 Dispersion                     ...        0 min,  0.069 sec (  0.468%)
 classical contributions        ...        0 min,  0.009 sec (  0.063%)
 integral evaluation            ...        0 min,  0.398 sec (  2.713%)
 iterations                     ...        0 min, 13.691 sec ( 93.229%)
 molecular gradient             ...        0 min,  0.476 sec (  3.243%)
 printout                       ...        0 min,  0.010 sec (  0.066%)

         :::::::::::::::::::::::::::::::::::::::::::::::::::::
         ::                     SUMMARY                     ::
         :::::::::::::::::::::::::::::::::::::::::::::::::::::
         :: total energy            -122.061885914002 Eh    ::
         :: gradient norm              0.277674143501 Eh/a0 ::
         :: HOMO-LUMO gap              0.382067958070 eV    ::
         ::.................................................::
         :: SCC energy              -123.547160715379 Eh    ::
         :: -> isotropic ES            0.406438493747 Eh    ::
         :: -> anisotropic ES          0.014207650845 Eh    ::
         :: -> anisotropic XC          0.028952944516 Eh    ::
         :: -> dispersion             -0.080829805751 Eh    ::
         :: repulsion energy           1.485274801377 Eh    ::
         :: add. restraining           0.000000000000 Eh    ::
         :: total charge              -1.000000000000 e     ::
         :::::::::::::::::::::::::::::::::::::::::::::::::::::

           -------------------------------------------------
          |                Property Printout                |
           -------------------------------------------------

    * Orbital Energies and Occupations

         #    Occupation            Energy/Eh            Energy/eV
      -------------------------------------------------------------
         1        2.0000           -0.6583926             -17.9158
       ...           ...                  ...                  ...
        95        2.0000           -0.3390212              -9.2252
        96        2.0000           -0.3364707              -9.1558
        97        2.0000           -0.3326282              -9.0513
        98        2.0000           -0.3313055              -9.0153
        99        2.0000           -0.3250228              -8.8443
       100        2.0000           -0.3232507              -8.7961
       101        2.0000           -0.3229766              -8.7886
       102        2.0000           -0.3125579              -8.5051
       103        2.0000           -0.3037108              -8.2644
       104        2.0000           -0.2986101              -8.1256
       105        2.0000           -0.2267588              -6.1704
       106        2.0000           -0.2119931              -5.7686
       107        1.9988           -0.1967621              -5.3542 (HOMO)
       108        0.0012           -0.1827214              -4.9721 (LUMO)
       109                         -0.1719536              -4.6791
       110                         -0.1711319              -4.6567
       111                         -0.1678631              -4.5678
       112                         -0.1594356              -4.3385
       113                         -0.1555207              -4.2319
       114                         -0.1525075              -4.1499
       115                         -0.1460205              -3.9734
       116                         -0.1014847              -2.7615
       117                         -0.0252642              -0.6875
       118                          0.0092069               0.2505
       ...                                ...                  ...
       190                          0.9107929              24.7839
      -------------------------------------------------------------
                  HL-Gap            0.0140407 Eh            0.3821 eV
             Fermi-level           -0.1897418 Eh           -5.1631 eV

     #   Z          covCN         q      C6AA      α(0)
     1   7 N        2.687    -0.193    25.199     7.455
     2   6 C        3.751    -0.019    20.974     6.531
     3   6 C        2.744     0.275    22.346     7.740
     4   8 O        0.858    -0.415    21.986     6.287
     5   7 N        2.681    -0.184    24.981     7.423
     6   6 C        3.790     0.022    20.220     6.404
     7   6 C        2.775     0.257    22.679     7.800
     8   6 C        3.810     0.016    20.296     6.413
     9   8 O        0.858    -0.487    23.497     6.499
    10   7 N        2.703    -0.191    25.140     7.447
    11   6 C        3.786    -0.049    21.467     6.599
    12   6 C        2.763     0.265    22.538     7.775
    13   6 C        3.787    -0.087    22.170     6.706
    14   6 C        3.743    -0.036    21.283     6.581
    15   8 O        0.861    -0.402    21.719     6.248
    16   6 C        2.685     0.380    20.560     7.420
    17   7 N        2.687    -0.149    24.228     7.310
    18   8 O        0.858    -0.591    25.910     6.825
    19   8 O        0.857    -0.575    25.505     6.771
    20   6 C        2.766     0.256    22.695     7.802
    21   6 C        3.795     0.023    20.200     6.400
    22   8 O        0.859    -0.456    22.831     6.406
    23   7 N        2.687    -0.167    24.623     7.370
    24   6 C        3.748    -0.116    22.782     6.808
    25   6 C        2.743     0.255    22.713     7.803
    26   6 C        3.716    -0.011    20.891     6.530
    27   8 O        0.857    -0.448    22.670     6.384
    28   7 N        2.687    -0.160    24.454     7.344
    29   6 C        2.756     0.261    22.602     7.785
    30   8 O        0.859    -0.435    22.400     6.345
    31   6 C        3.824    -0.065    21.737     6.634
    32   6 C        3.090    -0.025    28.508     8.752
    33   6 C        3.029    -0.001    28.024     8.683
    34   6 C        3.102    -0.028    28.567     8.758
    35   7 N        2.788    -0.097    23.139     7.144
    36   6 C        3.129     0.035    27.017     8.510
    37   6 C        2.913    -0.039    28.977     8.827
    38   6 C        2.909    -0.044    29.087     8.843
    39   6 C        2.917    -0.049    29.219     8.864
    40   6 C        2.930    -0.040    28.999     8.831
    41   1 H        0.862     0.202     1.095     1.639
    42   1 H        0.927     0.087     1.911     2.162
    43   1 H        0.927     0.088     1.895     2.152
    44   1 H        0.859     0.176     1.237     1.742
    45   1 H        0.928     0.086     1.921     2.167
    46   1 H        0.926     0.054     2.270     2.356
    47   1 H        0.858     0.189     1.166     1.692
    48   1 H        0.913     0.032     2.558     2.502
    49   1 H        0.925     0.074     2.040     2.234
    50   1 H        0.919     0.007     2.938     2.681
    51   1 H        0.913     0.000     3.059     2.736
    52   1 H        0.918     0.071     2.074     2.252
    53   1 H        0.929     0.094     1.844     2.123
    54   1 H        0.860     0.189     1.162     1.688
    55   1 H        0.927     0.077     2.011     2.218
    56   1 H        0.860     0.182     1.204     1.719
    57   1 H        0.925     0.042     2.423     2.434
    58   1 H        0.922     0.046     2.368     2.407
    59   1 H        0.926     0.071     2.076     2.253
    60   1 H        0.913     0.037     2.487     2.467
    61   1 H        0.918     0.083     1.949     2.184
    62   1 H        0.862     0.198     1.118     1.656
    63   1 H        0.928     0.062     2.178     2.308
    64   1 H        0.927     0.079     1.992     2.207
    65   1 H        0.927     0.056     2.240     2.341
    66   1 H        0.860     0.154     1.372     1.835
    67   1 H        0.926     0.027     2.626     2.534
    68   1 H        0.919     0.008     2.921     2.673
    69   1 H        0.926     0.022     2.699     2.569
    70   1 H        0.926     0.021     2.713     2.576

 Mol. C6AA /au·bohr⁶  :      56180.460238
 Mol. C8AA /au·bohr⁸  :    1291807.748762
 Mol. α(0) /au        :        359.564915


Wiberg/Mayer (AO) data.
largest (>0.10) Wiberg bond orders for each atom

 ---------------------------------------------------------------------------
     #   Z sym  total        # sym  WBO       # sym  WBO       # sym  WBO
 ---------------------------------------------------------------------------
     1   7 N    3.423 --     7 C    1.258     2 C    0.990    41 H    0.922
                             9 O    0.169
     2   6 C    3.960 --     1 N    0.990    42 H    0.953    43 H    0.950
                             3 C    0.945
     3   6 C    3.950 --     4 O    1.711     5 N    1.228     2 C    0.945
     4   8 O    2.027 --     3 C    1.711     5 N    0.189
     5   7 N    3.409 --     3 C    1.228     6 C    0.983    44 H    0.932
                             4 O    0.189
     6   6 C    3.963 --     5 N    0.983    31 C    0.957    45 H    0.941
                            29 C    0.931
     7   6 C    3.952 --     9 O    1.605     1 N    1.258     8 C    0.978
     8   6 C    3.958 --    10 N    0.986     7 C    0.978    46 H    0.949
                            11 C    0.905
     9   8 O    1.948 --     7 C    1.605     1 N    0.169
    10   7 N    3.426 --    12 C    1.261     8 C    0.986    47 H    0.901
                            15 O    0.200
    11   6 C    3.969 --    13 C    1.030    48 H    0.974    49 H    0.963
                             8 C    0.905
    12   6 C    3.951 --    15 O    1.725    10 N    1.261    14 C    0.914
    13   6 C    3.956 --    11 C    1.030    51 H    0.972    50 H    0.958
                            16 C    0.847
    14   6 C    3.953 --    17 N    0.979    53 H    0.963    52 H    0.962
                            12 C    0.914
    15   8 O    2.057 --    12 C    1.725    10 N    0.200
    16   6 C    3.946 --    19 O    1.553    18 O    1.517    13 C    0.847
    17   7 N    3.489 --    20 C    1.319    14 C    0.979    54 H    0.929
                            22 O    0.204
    18   8 O    1.846 --    16 C    1.517    19 O    0.233
    19   8 O    1.867 --    16 C    1.553    18 O    0.233
    20   6 C    3.956 --    22 O    1.636    17 N    1.319    21 C    0.927
    21   6 C    3.962 --    23 N    0.991    24 C    0.990    55 H    0.951
                            20 C    0.927
    22   8 O    1.959 --    20 C    1.636    17 N    0.204
    23   7 N    3.453 --    25 C    1.270    21 C    0.991    56 H    0.932
                            27 O    0.190
    24   6 C    3.986 --    21 C    0.990    58 H    0.987    57 H    0.985
                            59 H    0.983
    25   6 C    3.945 --    27 O    1.670    23 N    1.270    26 C    0.927
    26   6 C    3.975 --    28 N    1.026    60 H    0.953    61 H    0.949
                            25 C    0.927
    27   8 O    1.989 --    25 C    1.670    23 N    0.190
    28   7 N    3.446 --    29 C    1.237    26 C    1.026    62 H    0.923
                            30 O    0.188
    29   6 C    3.942 --    30 O    1.688    28 N    1.237     6 C    0.931
    30   8 O    2.004 --    29 C    1.688    28 N    0.188
    31   6 C    3.974 --    32 C    1.035    64 H    0.959     6 C    0.957
                            63 H    0.955
    32   6 C    3.978 --    33 C    1.533    34 C    1.239    31 C    1.035
    33   6 C    3.953 --    32 C    1.533    35 N    1.222    65 H    0.969
    34   6 C    3.983 --    37 C    1.288    36 C    1.250    32 C    1.239
    35   7 N    3.543 --    33 C    1.222    36 C    1.169    66 H    0.943
    36   6 C    3.956 --    38 C    1.314    34 C    1.250    35 N    1.169
    37   6 C    3.992 --    39 C    1.565    34 C    1.288    67 H    0.967
    38   6 C    3.988 --    40 C    1.558    36 C    1.314    68 H    0.958
    39   6 C    3.983 --    37 C    1.565    40 C    1.286    69 H    0.973
    40   6 C    3.987 --    38 C    1.558    39 C    1.286    70 H    0.971
    41   1 H    0.959 --     1 N    0.922
    42   1 H    0.992 --     2 C    0.953
    43   1 H    0.991 --     2 C    0.950
    44   1 H    0.968 --     5 N    0.932
    45   1 H    0.992 --     6 C    0.941
    46   1 H    0.997 --     8 C    0.949
    47   1 H    0.964 --    10 N    0.901
    48   1 H    0.999 --    11 C    0.974
    49   1 H    0.994 --    11 C    0.963
    50   1 H    1.000 --    13 C    0.958
    51   1 H    1.000 --    13 C    0.972
    52   1 H    0.995 --    14 C    0.962
    53   1 H    0.991 --    14 C    0.963
    54   1 H    0.964 --    17 N    0.929
    55   1 H    0.994 --    21 C    0.951
    56   1 H    0.967 --    23 N    0.932
    57   1 H    0.998 --    24 C    0.985
    58   1 H    0.997 --    24 C    0.987
    59   1 H    0.995 --    24 C    0.983
    60   1 H    0.998 --    26 C    0.953
    61   1 H    0.993 --    26 C    0.949
    62   1 H    0.961 --    28 N    0.923
    63   1 H    0.996 --    31 C    0.955
    64   1 H    0.993 --    31 C    0.959
    65   1 H    0.996 --    33 C    0.969
    66   1 H    0.976 --    35 N    0.943
    67   1 H    0.999 --    37 C    0.967
    68   1 H    0.999 --    38 C    0.958
    69   1 H    0.999 --    39 C    0.973
    70   1 H    0.999 --    40 C    0.971
 ---------------------------------------------------------------------------

Topologies differ in total number of bonds
Writing topology from bond orders to xtbtopo.mol

molecular dipole:
                 x           y           z       tot (Debye)
 q only:        2.933       8.791       8.212
   full:        2.737       9.073       8.373      32.144
molecular quadrupole (traceless):
                xx          xy          yy          xz          yz          zz
 q only:       47.982     -43.276     -31.204     -41.163    -129.420     -16.777
  q+dip:       35.884     -41.577     -24.110     -42.753    -136.157     -11.774
   full:       38.251     -42.244     -26.459     -44.084    -135.463     -11.791


           -------------------------------------------------
          | TOTAL ENERGY             -122.061885914002 Eh   |
          | GRADIENT NORM               0.277674143501 Eh/α |
          | HOMO-LUMO GAP               0.382067958070 eV   |
           -------------------------------------------------

------------------------------------------------------------------------
 * finished run on 2026/05/23 at 08:18:45.206     
------------------------------------------------------------------------
 total:
 * wall-time:     0 d,  0 h,  0 min, 15.271 sec
 *  cpu-time:     0 d,  0 h,  0 min, 24.092 sec
 * ratio c/w:     1.578 speedup
 SCF:
 * wall-time:     0 d,  0 h,  0 min, 14.686 sec
 *  cpu-time:     0 d,  0 h,  0 min, 23.589 sec
 * ratio c/w:     1.606 speedup

normal termination of xtb
