      -----------------------------------------------------------      
     |                   =====================                   |     
     |                           x T B                           |     
     |                   =====================                   |     
     |                         S. Grimme                         |     
     |          Mulliken Center for Theoretical Chemistry        |     
     |                    University of Bonn                     |     
      -----------------------------------------------------------      

   * xtb version 6.7.1 (edcfbbe) compiled by 'albert@albert-system' on 2024-07-22

   xtb is free software: you can redistribute it and/or modify it under
   the terms of the GNU Lesser General Public License as published by
   the Free Software Foundation, either version 3 of the License, or
   (at your option) any later version.
   
   xtb is distributed in the hope that it will be useful,
   but WITHOUT ANY WARRANTY; without even the implied warranty of
   MERCHANTABILITY or FITNESS FOR A PARTICULAR PURPOSE.  See the
   GNU Lesser General Public License for more details.
   
   Cite this work as:
   * C. Bannwarth, E. Caldeweyher, S. Ehlert, A. Hansen, P. Pracht,
     J. Seibert, S. Spicher, S. Grimme, WIREs Comput. Mol. Sci., 2020, 11,
     e01493. DOI: 10.1002/wcms.1493
   
   for GFN2-xTB:
   * C. Bannwarth, S. Ehlert and S. Grimme., J. Chem. Theory Comput., 2019,
     15, 1652-1671. DOI: 10.1021/acs.jctc.8b01176
   for GFN1-xTB:
   * S. Grimme, C. Bannwarth, P. Shushkov, J. Chem. Theory Comput., 2017,
     13, 1989-2009. DOI: 10.1021/acs.jctc.7b00118
   for GFN0-xTB:
   * P. Pracht, E. Caldeweyher, S. Ehlert, S. Grimme, ChemRxiv, 2019, preprint.
     DOI: 10.26434/chemrxiv.8326202.v1
   for GFN-FF:
   * S. Spicher and S. Grimme, Angew. Chem. Int. Ed., 2020, 59, 15665-15673.
     DOI: 10.1002/anie.202004239
   
   for ALPB and GBSA implicit solvation:
   * S. Ehlert, M. Stahn, S. Spicher, S. Grimme, J. Chem. Theory Comput.,
     2021, 17, 4250-4261. DOI: 10.1021/acs.jctc.1c00471
   
   for ddCOSMO and CPCM-X implicit solvation:
   * M. Stahn, S. Ehlert, S. Grimme, J. Phys. Chem. A,
     2023, XX, XXXX-XXXX. DOI: 10.1021/acs.jpca.3c04382
   
   for DFT-D4:
   * E. Caldeweyher, C. Bannwarth and S. Grimme, J. Chem. Phys., 2017,
     147, 034112. DOI: 10.1063/1.4993215
   * E. Caldeweyher, S. Ehlert, A. Hansen, H. Neugebauer, S. Spicher,
     C. Bannwarth and S. Grimme, J. Chem. Phys., 2019, 150, 154122.
     DOI: 10.1063/1.5090222
   * E. Caldeweyher, J.-M. Mewes, S. Ehlert and S. Grimme, Phys. Chem. Chem. Phys.
     2020, 22, 8499-8512. DOI: 10.1039/D0CP00502A
   
   for sTDA-xTB:
   * S. Grimme and C. Bannwarth, J. Chem. Phys., 2016, 145, 054103.
     DOI: 10.1063/1.4959605
   
   in the mass-spec context:
   * V. Asgeirsson, C. Bauer and S. Grimme, Chem. Sci., 2017, 8, 4879.
     DOI: 10.1039/c7sc00601b
   * J. Koopman and S. Grimme, ACS Omega 2019, 4, 12, 15120-15133.
     DOI: 10.1021/acsomega.9b02011
   
   for metadynamics refer to:
   * S. Grimme, J. Chem. Theory Comput., 2019, 155, 2847-2862
     DOI: 10.1021/acs.jctc.9b00143
   
   for SPH calculations refer to:
   * S. Spicher and S. Grimme, J. Chem. Theory Comput., 2021, 17, 1701-1714
     DOI: 10.1021/acs.jctc.0c01306
   
   for ONIOM refer to:
   * C. Plett, A. Katbashev, S. Ehlert, S. Grimme, M. Bursch,
     Phys. Chem. Chem. Phys., 2023, 25, 17860-17868. DOI: 10.1039/D3CP02178E
   
   for DIPRO refer to:
   * J. Kohn, N. Gildemeister, S. Grimme, D. Fazzi, A. Hansen,
     J. Chem. Phys., 2023, just accepted.
   
   for PTB refer to:
   * S. Grimme, M. Mueller, A. Hansen, J. Chem. Phys., 2023, 158, 124111.
     DOI: 10.1063/5.0137838
   
   with help from (in alphabetical order)
   P. Atkinson, C. Bannwarth, F. Bohle, G. Brandenburg, E. Caldeweyher
   M. Checinski, S. Dohm, S. Ehlert, S. Ehrlich, I. Gerasimov, C. Hölzer
   A. Katbashev, J. Kohn, J. Koopman, C. Lavigne, S. Lehtola, F. März, M. Müller,
   F. Musil, H. Neugebauer, J. Pisarek, C. Plett, P. Pracht, F. Pultar,
   J. Seibert, P. Shushkov, S. Spicher, M. Stahn, M. Steiner, T. Strunk,
   J. Stückrath, T. Rose, and J. Unsleber
   
 * started run on 2026/05/23 at 12:39:11.500     
   ID    Z sym.   atoms
    1    7 N      1, 5, 10, 18, 29, 37, 45, 48
    2    6 C      2, 3, 6-8, 11-14, 16, 17, 19-25, 27, 28, 30-33, 35, 36,
                  38-43, 46, 47, 49-56
    3    8 O      4, 9, 15, 26, 34, 44
    4    1 H      57-114

           -------------------------------------------------
          |                Calculation Setup                |
           -------------------------------------------------

          program call               : /home/xchen/software/xtb-6.7.1/xtb-dist/bin/xtb /home/xchen/Test/benchmark/md_sampled/10_6_0573_0/snap_0076.xyz --charge 0 --gfn 2 --norestart
          coordinate file            : /home/xchen/Test/benchmark/md_sampled/10_6_0573_0/snap_0076.xyz
          omp threads                :                    48


           -------------------------------------------------
          |                 G F N 2 - x T B                 |
           -------------------------------------------------

        Reference                      10.1021/acs.jctc.8b01176
      * Hamiltonian:
        H0-scaling (s, p, d)           1.850000    2.230000    2.230000
        zeta-weighting                 0.500000
      * Dispersion:
        s8                             2.700000
        a1                             0.520000
        a2                             5.000000
        s9                             5.000000
      * Repulsion:
        kExp                           1.500000    1.000000
        rExp                           1.000000
      * Coulomb:
        alpha                          2.000000
        third order                    shell-resolved
        anisotropic                    true
        a3                             3.000000
        a5                             4.000000
        cn-shift                       1.200000
        cn-exp                         4.000000
        max-rad                        5.000000


          ...................................................
          :                      SETUP                      :
          :.................................................:
          :  # basis functions                 282          :
          :  # atomic orbitals                 282          :
          :  # shells                          170          :
          :  # electrons                       302          :
          :  max. iterations                   250          :
          :  Hamiltonian                  GFN2-xTB          :
          :  restarted?                      false          :
          :  GBSA solvation                  false          :
          :  PC potential                    false          :
          :  electronic temp.          300.0000000     K    :
          :  accuracy                    1.0000000          :
          :  -> integral cutoff          0.2500000E+02      :
          :  -> integral neglect         0.1000000E-07      :
          :  -> SCF convergence          0.1000000E-05 Eh   :
          :  -> wf. convergence          0.1000000E-03 e    :
          :  Broyden damping             0.4000000          :
          :  net charge                          0          :
          :  unpaired electrons                  0          :
          ...................................................

 iter      E             dE          RMSdq      gap      omega  full diag
   1   -168.9575344 -0.168958E+03  0.385E+00    3.33       0.0  T
   2   -169.3606251 -0.403091E+00  0.219E+00    2.27       1.0  T
   3   -169.3841590 -0.235339E-01  0.120E+00    2.86       1.0  T
   4   -169.3827181  0.144089E-02  0.445E-01    2.81       1.0  T
   5   -169.4009446 -0.182265E-01  0.117E-01    2.81       1.0  T
   6   -169.4014765 -0.531890E-03  0.589E-02    2.82       1.0  T
   7   -169.4016032 -0.126706E-03  0.265E-02    2.81       1.0  T
   8   -169.4016116 -0.839130E-05  0.101E-02    2.80       1.0  T
   9   -169.4016177 -0.616967E-05  0.426E-03    2.80       2.2  T
  10   -169.4016184 -0.630985E-06  0.163E-03    2.80       5.7  T
  11   -169.4016184 -0.556703E-07  0.777E-04    2.80      12.1  T
  12   -169.4016185 -0.213604E-07  0.306E-04    2.80      30.6  T

   *** convergence criteria satisfied after 12 iterations ***

         #    Occupation            Energy/Eh            Energy/eV
      -------------------------------------------------------------
         1        2.0000           -0.7238243             -19.6963
       ...           ...                  ...                  ...
       145        2.0000           -0.3950032             -10.7486
       146        2.0000           -0.3867102             -10.5229
       147        2.0000           -0.3829462             -10.4205
       148        2.0000           -0.3780061             -10.2861
       149        2.0000           -0.3739338             -10.1753
       150        2.0000           -0.3726956             -10.1416
       151        2.0000           -0.3552973              -9.6681 (HOMO)
       152                         -0.2522847              -6.8650 (LUMO)
       153                         -0.2445761              -6.6553
       154                         -0.2419688              -6.5843
       155                         -0.2299428              -6.2571
       156                         -0.2269693              -6.1761
       ...                                ...                  ...
       282                          0.7100685              19.3219
      -------------------------------------------------------------
                  HL-Gap            0.1030126 Eh            2.8031 eV
             Fermi-level           -0.3037910 Eh           -8.2666 eV

 SCC (total)                   0 d,  0 h,  0 min, 20.735 sec
 SCC setup                      ...        0 min,  0.034 sec (  0.162%)
 Dispersion                     ...        0 min,  0.194 sec (  0.934%)
 classical contributions        ...        0 min,  0.010 sec (  0.047%)
 integral evaluation            ...        0 min,  0.403 sec (  1.945%)
 iterations                     ...        0 min, 19.105 sec ( 92.139%)
 molecular gradient             ...        0 min,  0.975 sec (  4.704%)
 printout                       ...        0 min,  0.014 sec (  0.068%)

         :::::::::::::::::::::::::::::::::::::::::::::::::::::
         ::                     SUMMARY                     ::
         :::::::::::::::::::::::::::::::::::::::::::::::::::::
         :: total energy            -167.200872160096 Eh    ::
         :: gradient norm              0.344160485880 Eh/a0 ::
         :: HOMO-LUMO gap              2.803115852516 eV    ::
         ::.................................................::
         :: SCC energy              -169.394287261013 Eh    ::
         :: -> isotropic ES            0.246437290601 Eh    ::
         :: -> anisotropic ES          0.021034854963 Eh    ::
         :: -> anisotropic XC          0.077054313677 Eh    ::
         :: -> dispersion             -0.139540929484 Eh    ::
         :: repulsion energy           2.193415100917 Eh    ::
         :: add. restraining           0.000000000000 Eh    ::
         :: total charge              -0.000000000000 e     ::
         :::::::::::::::::::::::::::::::::::::::::::::::::::::

           -------------------------------------------------
          |                Property Printout                |
           -------------------------------------------------

    * Orbital Energies and Occupations

         #    Occupation            Energy/Eh            Energy/eV
      -------------------------------------------------------------
         1        2.0000           -0.7238243             -19.6963
       ...           ...                  ...                  ...
       139        2.0000           -0.4096399             -11.1469
       140        2.0000           -0.4093421             -11.1388
       141        2.0000           -0.4086121             -11.1189
       142        2.0000           -0.4075815             -11.0909
       143        2.0000           -0.4036710             -10.9844
       144        2.0000           -0.3964879             -10.7890
       145        2.0000           -0.3950032             -10.7486
       146        2.0000           -0.3867102             -10.5229
       147        2.0000           -0.3829462             -10.4205
       148        2.0000           -0.3780061             -10.2861
       149        2.0000           -0.3739338             -10.1753
       150        2.0000           -0.3726956             -10.1416
       151        2.0000           -0.3552973              -9.6681 (HOMO)
       152                         -0.2522847              -6.8650 (LUMO)
       153                         -0.2445761              -6.6553
       154                         -0.2419688              -6.5843
       155                         -0.2299428              -6.2571
       156                         -0.2269693              -6.1761
       157                         -0.2230768              -6.0702
       158                         -0.2206661              -6.0046
       159                         -0.2130423              -5.7972
       160                         -0.2097550              -5.7077
       161                         -0.2087253              -5.6797
       162                         -0.2033800              -5.5343
       ...                                ...                  ...
       282                          0.7100685              19.3219
      -------------------------------------------------------------
                  HL-Gap            0.1030126 Eh            2.8031 eV
             Fermi-level           -0.3037910 Eh           -8.2666 eV

     #   Z          covCN         q      C6AA      α(0)
     1   7 N        2.683    -0.191    25.137     7.446
     2   6 C        3.780     0.013    20.384     6.432
     3   6 C        2.763     0.264    22.554     7.777
     4   8 O        0.861    -0.469    23.108     6.445
     5   7 N        2.672    -0.147    24.188     7.304
     6   6 C        3.775    -0.001    20.623     6.471
     7   6 C        2.760     0.285    22.170     7.711
     8   6 C        3.794     0.034    20.002     6.369
     9   8 O        0.861    -0.448    22.670     6.384
    10   7 N        2.686    -0.227    25.963     7.568
    11   6 C        3.801    -0.071    21.853     6.656
    12   6 C        2.756     0.276    22.325     7.737
    13   6 C        2.963     0.011    27.777     8.645
    14   6 C        3.789     0.014    20.352     6.425
    15   8 O        0.857    -0.385    21.383     6.200
    16   6 C        2.903    -0.043    29.071     8.841
    17   6 C        2.905    -0.033    28.822     8.803
    18   7 N        2.679    -0.200    25.340     7.476
    19   6 C        3.807    -0.065    21.740     6.637
    20   6 C        2.901    -0.031    28.773     8.795
    21   6 C        2.917    -0.026    28.647     8.777
    22   6 C        2.753     0.265    22.526     7.772
    23   6 C        3.845    -0.006    20.651     6.464
    24   6 C        2.900    -0.030    28.738     8.790
    25   6 C        3.795     0.028    20.112     6.386
    26   8 O        0.864    -0.424    22.153     6.311
    27   6 C        3.737    -0.112    22.737     6.804
    28   6 C        3.743    -0.102    22.531     6.772
    29   7 N        2.699    -0.169    24.657     7.375
    30   6 C        3.832    -0.075    21.916     6.661
    31   6 C        2.748     0.265    22.523     7.771
    32   6 C        2.985     0.017    27.624     8.621
    33   6 C        3.801     0.027    20.123     6.387
    34   8 O        0.858    -0.416    22.007     6.290
    35   6 C        2.955    -0.037    28.918     8.820
    36   6 C        2.951    -0.030    28.744     8.793
    37   7 N        2.676    -0.191    25.135     7.446
    38   6 C        3.758    -0.055    21.613     6.628
    39   6 C        2.931    -0.031    28.763     8.795
    40   6 C        2.933    -0.024    28.598     8.770
    41   6 C        2.729     0.262    22.589     7.781
    42   6 C        3.223     0.057    26.006     8.289
    43   6 C        2.937    -0.027    28.666     8.781
    44   8 O        0.857    -0.398    21.650     6.238
    45   7 N        1.862    -0.249    27.333     7.749
    46   6 C        2.956    -0.019    28.485     8.754
    47   6 C        3.119     0.074    26.173     8.379
    48   7 N        2.775    -0.096    23.118     7.141
    49   6 C        3.811    -0.025    21.005     6.524
    50   6 C        3.743    -0.107    22.629     6.786
    51   6 C        3.763    -0.066    21.808     6.657
    52   6 C        3.735    -0.097    22.448     6.762
    53   6 C        3.854    -0.030    21.065     6.528
    54   6 C        3.773    -0.111    22.646     6.781
    55   6 C        3.805    -0.046    21.396     6.585
    56   6 C        3.754    -0.105    22.572     6.775
    57   1 H        0.859     0.175     1.243     1.746
    58   1 H        0.927     0.081     1.970     2.195
    59   1 H        0.849     0.170     1.273     1.768
    60   1 H        0.928     0.095     1.833     2.117
    61   1 H        0.925     0.055     2.253     2.348
    62   1 H        0.861     0.185     1.183     1.704
    63   1 H        0.919     0.038     2.474     2.460
    64   1 H        0.927     0.050     2.322     2.383
    65   1 H        0.928     0.106     1.730     2.057
    66   1 H        0.925     0.031     2.570     2.507
    67   1 H        0.926     0.039     2.467     2.456
    68   1 H        0.860     0.172     1.259     1.757
    69   1 H        0.920     0.044     2.396     2.421
    70   1 H        0.926     0.061     2.193     2.316
    71   1 H        0.926     0.040     2.455     2.450
    72   1 H        0.922     0.032     2.562     2.503
    73   1 H        0.914     0.022     2.702     2.571
    74   1 H        0.923     0.034     2.528     2.486
    75   1 H        0.925     0.096     1.825     2.112
    76   1 H        0.925     0.043     2.415     2.430
    77   1 H        0.909     0.030     2.590     2.518
    78   1 H        0.925     0.049     2.337     2.390
    79   1 H        0.913     0.037     2.497     2.471
    80   1 H        0.921     0.027     2.633     2.538
    81   1 H        0.924     0.046     2.365     2.405
    82   1 H        0.860     0.182     1.201     1.717
    83   1 H        0.928     0.042     2.428     2.436
    84   1 H        0.921     0.033     2.549     2.497
    85   1 H        0.928     0.086     1.923     2.168
    86   1 H        0.925     0.021     2.712     2.575
    87   1 H        0.926     0.035     2.523     2.484
    88   1 H        0.854     0.198     1.117     1.656
    89   1 H        0.925     0.086     1.914     2.164
    90   1 H        0.872     0.011     2.894     2.664
    91   1 H        0.918     0.030     2.587     2.515
    92   1 H        0.925     0.043     2.413     2.429
    93   1 H        0.924     0.039     2.468     2.457
    94   1 H        0.921     0.051     2.310     2.377
    95   1 H        0.907     0.023     2.686     2.564
    96   1 H        0.861     0.163     1.315     1.796
    97   1 H        0.926     0.038     2.481     2.463
    98   1 H        0.923     0.051     2.302     2.373
    99   1 H        0.924     0.044     2.395     2.420
   100   1 H        0.920     0.026     2.646     2.544
   101   1 H        0.920     0.066     2.126     2.281
   102   1 H        0.922     0.046     2.374     2.410
   103   1 H        0.902     0.026     2.655     2.549
   104   1 H        0.927     0.046     2.367     2.406
   105   1 H        0.926     0.042     2.419     2.432
   106   1 H        0.927     0.064     2.156     2.296
   107   1 H        0.926     0.038     2.474     2.460
   108   1 H        0.928     0.060     2.195     2.317
   109   1 H        0.923     0.025     2.658     2.549
   110   1 H        0.920     0.025     2.666     2.554
   111   1 H        0.916     0.006     2.964     2.693
   112   1 H        0.925     0.037     2.486     2.465
   113   1 H        0.926     0.042     2.417     2.431
   114   1 H        0.926     0.040     2.445     2.445

 Mol. C6AA /au·bohr⁶  :     129368.157304
 Mol. C8AA /au·bohr⁸  :    2950515.380675
 Mol. α(0) /au        :        548.760870


Wiberg/Mayer (AO) data.
largest (>0.10) Wiberg bond orders for each atom

 ---------------------------------------------------------------------------
     #   Z sym  total        # sym  WBO       # sym  WBO       # sym  WBO
 ---------------------------------------------------------------------------
     1   7 N    3.434 --     7 C    1.262     2 C    0.973    57 H    0.933
                             9 O    0.192
     2   6 C    3.953 --     1 N    0.973    49 C    0.956    58 H    0.945
                             3 C    0.942
     3   6 C    3.953 --     4 O    1.626     5 N    1.292     2 C    0.942
     4   8 O    1.953 --     3 C    1.626     5 N    0.188
     5   7 N    3.475 --     3 C    1.292     6 C    0.987    59 H    0.919
                             4 O    0.188
     6   6 C    3.948 --     5 N    0.987    53 C    0.961    60 H    0.951
                            41 C    0.868
     7   6 C    3.944 --     9 O    1.671     1 N    1.262     8 C    0.918
     8   6 C    3.970 --    10 N    1.011    61 H    0.959    11 C    0.955
                             7 C    0.918
     9   8 O    2.002 --     7 C    1.671     1 N    0.192
    10   7 N    3.320 --    12 C    1.136     8 C    1.011    62 H    0.914
                            15 O    0.177
    11   6 C    3.988 --    13 C    0.996    64 H    0.973    63 H    0.973
                             8 C    0.955
    12   6 C    3.941 --    15 O    1.775    10 N    1.136    14 C    0.947
    13   6 C    3.983 --    16 C    1.434    17 C    1.399    11 C    0.996
                            24 C    0.107
    14   6 C    3.951 --    19 C    0.977    65 H    0.953    12 C    0.947
                            18 N    0.945
    15   8 O    2.072 --    12 C    1.775    10 N    0.177
    16   6 C    3.987 --    13 C    1.434    20 C    1.400    66 H    0.972
                            21 C    0.124
    17   6 C    3.989 --    21 C    1.476    13 C    1.399    67 H    0.967
                            20 C    0.102
    18   7 N    3.412 --    22 C    1.243    14 C    0.945    68 H    0.930
                            26 O    0.192
    19   6 C    3.989 --    23 C    1.004    14 C    0.977    69 H    0.970
                            70 H    0.969
    20   6 C    3.989 --    24 C    1.488    16 C    1.400    71 H    0.972
                            17 C    0.102
    21   6 C    3.989 --    17 C    1.476    24 C    1.390    72 H    0.970
                            16 C    0.124
    22   6 C    3.952 --    26 O    1.693    18 N    1.243    25 C    0.944
    23   6 C    3.994 --    28 C    1.012    19 C    1.004    27 C    0.994
                            73 H    0.959
    24   6 C    3.984 --    20 C    1.488    21 C    1.390    74 H    0.970
                            13 C    0.107
    25   6 C    3.968 --    29 N    1.003    30 C    0.959    22 C    0.944
                            75 H    0.932
    26   8 O    2.006 --    22 C    1.693    18 N    0.192
    27   6 C    3.991 --    23 C    0.994    76 H    0.989    78 H    0.986
                            77 H    0.985
    28   6 C    3.993 --    23 C    1.012    80 H    0.986    81 H    0.985
                            79 H    0.982
    29   7 N    3.437 --    31 C    1.227    25 C    1.003    82 H    0.928
                            34 O    0.191
    30   6 C    3.993 --    32 C    1.003    83 H    0.969    84 H    0.969
                            25 C    0.959
    31   6 C    3.947 --    34 O    1.711    29 N    1.227    33 C    0.938
    32   6 C    3.988 --    36 C    1.441    35 C    1.398    30 C    1.003
                            43 C    0.100
    33   6 C    3.962 --    38 C    0.981    37 N    0.968    85 H    0.951
                            31 C    0.938
    34   8 O    2.024 --    31 C    1.711    29 N    0.191
    35   6 C    3.991 --    39 C    1.440    32 C    1.398    86 H    0.962
                            40 C    0.120
    36   6 C    3.993 --    32 C    1.441    40 C    1.415    87 H    0.967
                            39 C    0.114
    37   7 N    3.411 --    41 C    1.257    33 C    0.968    88 H    0.913
                            44 O    0.193
    38   6 C    3.987 --    42 C    1.018    33 C    0.981    89 H    0.951
                            90 H    0.937
    39   6 C    3.988 --    35 C    1.440    43 C    1.431    91 H    0.957
                            36 C    0.114
    40   6 C    3.991 --    43 C    1.455    36 C    1.415    92 H    0.968
                            35 C    0.120
    41   6 C    3.942 --    44 O    1.732    37 N    1.257     6 C    0.868
    42   6 C    3.969 --    46 C    1.501    45 N    1.299    38 C    1.018
    43   6 C    3.991 --    40 C    1.455    39 C    1.431    93 H    0.969
                            32 C    0.100
    44   8 O    2.069 --    41 C    1.732    37 N    0.193
    45   7 N    3.048 --    47 C    1.567    42 C    1.299    48 N    0.101
    46   6 C    3.943 --    42 C    1.501    48 N    1.254    94 H    0.962
                            47 C    0.140
    47   6 C    3.939 --    45 N    1.567    48 N    1.195    95 H    0.960
                            46 C    0.140
    48   7 N    3.577 --    46 C    1.254    47 C    1.195    96 H    0.947
                            45 N    0.101
    49   6 C    3.978 --    50 C    1.015    51 C    0.973    97 H    0.970
                             2 C    0.956
    50   6 C    3.993 --    49 C    1.015   100 H    0.983    98 H    0.980
                            99 H    0.978
    51   6 C    3.971 --    52 C    1.026    49 C    0.973   102 H    0.972
                           101 H    0.964
    52   6 C    3.995 --    51 C    1.026   104 H    0.984   103 H    0.982
                           105 H    0.980
    53   6 C    3.987 --    54 C    1.013    55 C    0.998     6 C    0.961
                           106 H    0.958
    54   6 C    3.994 --    53 C    1.013   107 H    0.984   109 H    0.983
                           108 H    0.978
    55   6 C    3.994 --    56 C    1.015    53 C    0.998   110 H    0.973
                           111 H    0.972
    56   6 C    3.989 --    55 C    1.015   112 H    0.985   114 H    0.981
                           113 H    0.978
    57   1 H    0.969 --     1 N    0.933
    58   1 H    0.993 --     2 C    0.945
    59   1 H    0.971 --     5 N    0.919
    60   1 H    0.991 --     6 C    0.951
    61   1 H    0.997 --     8 C    0.959
    62   1 H    0.966 --    10 N    0.914
    63   1 H    0.998 --    11 C    0.973
    64   1 H    0.997 --    11 C    0.973
    65   1 H    0.988 --    14 C    0.953
    66   1 H    0.999 --    16 C    0.972
    67   1 H    0.998 --    17 C    0.967
    68   1 H    0.970 --    18 N    0.930
    69   1 H    0.998 --    19 C    0.970
    70   1 H    0.996 --    19 C    0.969
    71   1 H    0.998 --    20 C    0.972
    72   1 H    0.999 --    21 C    0.970
    73   1 H    0.999 --    23 C    0.959
    74   1 H    0.998 --    24 C    0.970
    75   1 H    0.990 --    25 C    0.932
    76   1 H    0.998 --    27 C    0.989
    77   1 H    0.999 --    27 C    0.985
    78   1 H    0.998 --    27 C    0.986
    79   1 H    0.998 --    28 C    0.982
    80   1 H    0.999 --    28 C    0.986
    81   1 H    0.998 --    28 C    0.985
    82   1 H    0.967 --    29 N    0.928
    83   1 H    0.998 --    30 C    0.969
    84   1 H    0.999 --    30 C    0.969
    85   1 H    0.992 --    33 C    0.951
    86   1 H    1.000 --    35 C    0.962
    87   1 H    0.999 --    36 C    0.967
    88   1 H    0.960 --    37 N    0.913
    89   1 H    0.992 --    38 C    0.951
    90   1 H    1.000 --    38 C    0.937
    91   1 H    0.999 --    39 C    0.957
    92   1 H    0.998 --    40 C    0.968
    93   1 H    0.998 --    43 C    0.969
    94   1 H    0.997 --    46 C    0.962
    95   1 H    0.999 --    47 C    0.960
    96   1 H    0.973 --    48 N    0.947
    97   1 H    0.998 --    49 C    0.970
    98   1 H    0.997 --    50 C    0.980
    99   1 H    0.998 --    50 C    0.978
   100   1 H    0.999 --    50 C    0.983
   101   1 H    0.996 --    51 C    0.964
   102   1 H    0.998 --    51 C    0.972
   103   1 H    0.999 --    52 C    0.982
   104   1 H    0.997 --    52 C    0.984
   105   1 H    0.998 --    52 C    0.980
   106   1 H    0.995 --    53 C    0.958
   107   1 H    0.999 --    54 C    0.984
   108   1 H    0.996 --    54 C    0.978
   109   1 H    0.999 --    54 C    0.983
   110   1 H    0.999 --    55 C    0.973
   111   1 H    1.000 --    55 C    0.972
   112   1 H    0.999 --    56 C    0.985
   113   1 H    0.998 --    56 C    0.978
   114   1 H    0.998 --    56 C    0.981
 ---------------------------------------------------------------------------

Topologies differ in total number of bonds
Writing topology from bond orders to xtbtopo.mol

molecular dipole:
                 x           y           z       tot (Debye)
 q only:       -1.190       2.848      -3.054
   full:       -1.286       3.491      -2.805      11.842
molecular quadrupole (traceless):
                xx          xy          yy          xz          yz          zz
 q only:       22.490      11.523       2.459       8.903       6.834     -24.948
  q+dip:       36.613      11.362      -8.642      20.385       5.853     -27.971
   full:       32.555      13.274      -5.593      19.598       6.186     -26.961


           -------------------------------------------------
          | TOTAL ENERGY             -167.200872160096 Eh   |
          | GRADIENT NORM               0.344160485880 Eh/α |
          | HOMO-LUMO GAP               2.803115852516 eV   |
           -------------------------------------------------

------------------------------------------------------------------------
 * finished run on 2026/05/23 at 12:39:32.901     
------------------------------------------------------------------------
 total:
 * wall-time:     0 d,  0 h,  0 min, 21.401 sec
 *  cpu-time:     0 d,  0 h,  0 min, 25.630 sec
 * ratio c/w:     1.198 speedup
 SCF:
 * wall-time:     0 d,  0 h,  0 min, 20.736 sec
 *  cpu-time:     0 d,  0 h,  0 min, 24.511 sec
 * ratio c/w:     1.182 speedup

normal termination of xtb
