      -----------------------------------------------------------      
     |                   =====================                   |     
     |                           x T B                           |     
     |                   =====================                   |     
     |                         S. Grimme                         |     
     |          Mulliken Center for Theoretical Chemistry        |     
     |                    University of Bonn                     |     
      -----------------------------------------------------------      

   * xtb version 6.7.1 (edcfbbe) compiled by 'albert@albert-system' on 2024-07-22

   xtb is free software: you can redistribute it and/or modify it under
   the terms of the GNU Lesser General Public License as published by
   the Free Software Foundation, either version 3 of the License, or
   (at your option) any later version.
   
   xtb is distributed in the hope that it will be useful,
   but WITHOUT ANY WARRANTY; without even the implied warranty of
   MERCHANTABILITY or FITNESS FOR A PARTICULAR PURPOSE.  See the
   GNU Lesser General Public License for more details.
   
   Cite this work as:
   * C. Bannwarth, E. Caldeweyher, S. Ehlert, A. Hansen, P. Pracht,
     J. Seibert, S. Spicher, S. Grimme, WIREs Comput. Mol. Sci., 2020, 11,
     e01493. DOI: 10.1002/wcms.1493
   
   for GFN2-xTB:
   * C. Bannwarth, S. Ehlert and S. Grimme., J. Chem. Theory Comput., 2019,
     15, 1652-1671. DOI: 10.1021/acs.jctc.8b01176
   for GFN1-xTB:
   * S. Grimme, C. Bannwarth, P. Shushkov, J. Chem. Theory Comput., 2017,
     13, 1989-2009. DOI: 10.1021/acs.jctc.7b00118
   for GFN0-xTB:
   * P. Pracht, E. Caldeweyher, S. Ehlert, S. Grimme, ChemRxiv, 2019, preprint.
     DOI: 10.26434/chemrxiv.8326202.v1
   for GFN-FF:
   * S. Spicher and S. Grimme, Angew. Chem. Int. Ed., 2020, 59, 15665-15673.
     DOI: 10.1002/anie.202004239
   
   for ALPB and GBSA implicit solvation:
   * S. Ehlert, M. Stahn, S. Spicher, S. Grimme, J. Chem. Theory Comput.,
     2021, 17, 4250-4261. DOI: 10.1021/acs.jctc.1c00471
   
   for ddCOSMO and CPCM-X implicit solvation:
   * M. Stahn, S. Ehlert, S. Grimme, J. Phys. Chem. A,
     2023, XX, XXXX-XXXX. DOI: 10.1021/acs.jpca.3c04382
   
   for DFT-D4:
   * E. Caldeweyher, C. Bannwarth and S. Grimme, J. Chem. Phys., 2017,
     147, 034112. DOI: 10.1063/1.4993215
   * E. Caldeweyher, S. Ehlert, A. Hansen, H. Neugebauer, S. Spicher,
     C. Bannwarth and S. Grimme, J. Chem. Phys., 2019, 150, 154122.
     DOI: 10.1063/1.5090222
   * E. Caldeweyher, J.-M. Mewes, S. Ehlert and S. Grimme, Phys. Chem. Chem. Phys.
     2020, 22, 8499-8512. DOI: 10.1039/D0CP00502A
   
   for sTDA-xTB:
   * S. Grimme and C. Bannwarth, J. Chem. Phys., 2016, 145, 054103.
     DOI: 10.1063/1.4959605
   
   in the mass-spec context:
   * V. Asgeirsson, C. Bauer and S. Grimme, Chem. Sci., 2017, 8, 4879.
     DOI: 10.1039/c7sc00601b
   * J. Koopman and S. Grimme, ACS Omega 2019, 4, 12, 15120-15133.
     DOI: 10.1021/acsomega.9b02011
   
   for metadynamics refer to:
   * S. Grimme, J. Chem. Theory Comput., 2019, 155, 2847-2862
     DOI: 10.1021/acs.jctc.9b00143
   
   for SPH calculations refer to:
   * S. Spicher and S. Grimme, J. Chem. Theory Comput., 2021, 17, 1701-1714
     DOI: 10.1021/acs.jctc.0c01306
   
   for ONIOM refer to:
   * C. Plett, A. Katbashev, S. Ehlert, S. Grimme, M. Bursch,
     Phys. Chem. Chem. Phys., 2023, 25, 17860-17868. DOI: 10.1039/D3CP02178E
   
   for DIPRO refer to:
   * J. Kohn, N. Gildemeister, S. Grimme, D. Fazzi, A. Hansen,
     J. Chem. Phys., 2023, just accepted.
   
   for PTB refer to:
   * S. Grimme, M. Mueller, A. Hansen, J. Chem. Phys., 2023, 158, 124111.
     DOI: 10.1063/5.0137838
   
   with help from (in alphabetical order)
   P. Atkinson, C. Bannwarth, F. Bohle, G. Brandenburg, E. Caldeweyher
   M. Checinski, S. Dohm, S. Ehlert, S. Ehrlich, I. Gerasimov, C. Hölzer
   A. Katbashev, J. Kohn, J. Koopman, C. Lavigne, S. Lehtola, F. März, M. Müller,
   F. Musil, H. Neugebauer, J. Pisarek, C. Plett, P. Pracht, F. Pultar,
   J. Seibert, P. Shushkov, S. Spicher, M. Stahn, M. Steiner, T. Strunk,
   J. Stückrath, T. Rose, and J. Unsleber
   
 * started run on 2026/05/23 at 13:01:30.916     
   ID    Z sym.   atoms
    1    7 N      1, 5, 10, 17, 27, 34, 39, 43, 54, 56, 57
    2    6 C      2, 3, 6-8, 11-14, 16, 18, 21-23, 28-31, 33, 35-38, 40,
                  44-48, 50-53, 55, 58
    3    8 O      4, 9, 15, 19, 20, 24-26, 32, 41, 49
    4   16 S      42
    5    1 H      59-117

           -------------------------------------------------
          |                Calculation Setup                |
           -------------------------------------------------

          program call               : /home/xchen/software/xtb-6.7.1/xtb-dist/bin/xtb /home/xchen/Test/benchmark/md_sampled/04_7_0231_n2/snap_0176.xyz --charge -2 --gfn 2 --norestart
          coordinate file            : /home/xchen/Test/benchmark/md_sampled/04_7_0231_n2/snap_0176.xyz
          omp threads                :                    48


           -------------------------------------------------
          |                 G F N 2 - x T B                 |
           -------------------------------------------------

        Reference                      10.1021/acs.jctc.8b01176
      * Hamiltonian:
        H0-scaling (s, p, d)           1.850000    2.230000    2.230000
        zeta-weighting                 0.500000
      * Dispersion:
        s8                             2.700000
        a1                             0.520000
        a2                             5.000000
        s9                             5.000000
      * Repulsion:
        kExp                           1.500000    1.000000
        rExp                           1.000000
      * Coulomb:
        alpha                          2.000000
        third order                    shell-resolved
        anisotropic                    true
        a3                             3.000000
        a5                             4.000000
        cn-shift                       1.200000
        cn-exp                         4.000000
        max-rad                        5.000000


          ...................................................
          :                      SETUP                      :
          :.................................................:
          :  # basis functions                 297          :
          :  # atomic orbitals                 296          :
          :  # shells                          176          :
          :  # electrons                       328          :
          :  max. iterations                   250          :
          :  Hamiltonian                  GFN2-xTB          :
          :  restarted?                      false          :
          :  GBSA solvation                  false          :
          :  PC potential                    false          :
          :  electronic temp.          300.0000000     K    :
          :  accuracy                    1.0000000          :
          :  -> integral cutoff          0.2500000E+02      :
          :  -> integral neglect         0.1000000E-07      :
          :  -> SCF convergence          0.1000000E-05 Eh   :
          :  -> wf. convergence          0.1000000E-03 e    :
          :  Broyden damping             0.4000000          :
          :  net charge                         -2          :
          :  unpaired electrons                  0          :
          ...................................................

 iter      E             dE          RMSdq      gap      omega  full diag
   1   -186.8706276 -0.186871E+03  0.416E+00    3.64       0.0  T
   2   -187.4023260 -0.531698E+00  0.212E+00    1.87       1.0  T
   3   -187.4348379 -0.325119E-01  0.120E+00    1.36       1.0  T
   4   -187.2445387  0.190299E+00  0.886E-01    0.02       1.0  T
   5   -187.4416998 -0.197161E+00  0.268E-01    1.26       1.0  T
   6   -187.4462366 -0.453689E-02  0.152E-01    1.28       1.0  T
   7   -187.4464600 -0.223360E-03  0.114E-01    1.22       1.0  T
   8   -187.4469663 -0.506304E-03  0.834E-02    1.09       1.0  T
   9   -187.4472132 -0.246845E-03  0.652E-02    0.94       1.0  T
  10   -187.4473925 -0.179349E-03  0.467E-02    0.77       1.0  T
  11   -187.4475394 -0.146947E-03  0.238E-02    0.55       1.0  T
  12   -187.4475893 -0.498714E-04  0.809E-03    0.40       1.1  T
  13   -187.4475968 -0.752073E-05  0.227E-03    0.33       4.1  T
  14   -187.4475975 -0.633065E-06  0.667E-04    0.34      13.9  T
  15   -187.4475975 -0.471669E-07  0.258E-04    0.35      35.8  T

   *** convergence criteria satisfied after 15 iterations ***

         #    Occupation            Energy/Eh            Energy/eV
      -------------------------------------------------------------
         1        2.0000           -0.5987416             -16.2926
       ...           ...                  ...                  ...
       158        2.0000           -0.2029341              -5.5221
       159        2.0000           -0.2003892              -5.4529
       160        2.0000           -0.1936399              -5.2692
       161        2.0000           -0.1852200              -5.0401
       162        2.0000           -0.1712907              -4.6611
       163        2.0000           -0.1630095              -4.4357
       164        1.9976           -0.1289328              -3.5084 (HOMO)
       165        0.0024           -0.1161942              -3.1618 (LUMO)
       166        0.0000           -0.1076972              -2.9306
       167                         -0.1028597              -2.7990
       168                         -0.1011446              -2.7523
       169                         -0.0992645              -2.7011
       ...                                ...                  ...
       296                          0.9210137              25.0621
      -------------------------------------------------------------
                  HL-Gap            0.0127386 Eh            0.3466 eV
             Fermi-level           -0.1225635 Eh           -3.3351 eV

 SCC (total)                   0 d,  0 h,  0 min,  2.531 sec
 SCC setup                      ...        0 min,  0.010 sec (  0.383%)
 Dispersion                     ...        0 min,  0.039 sec (  1.550%)
 classical contributions        ...        0 min,  0.002 sec (  0.063%)
 integral evaluation            ...        0 min,  0.117 sec (  4.631%)
 iterations                     ...        0 min,  2.239 sec ( 88.476%)
 molecular gradient             ...        0 min,  0.114 sec (  4.509%)
 printout                       ...        0 min,  0.010 sec (  0.383%)

         :::::::::::::::::::::::::::::::::::::::::::::::::::::
         ::                     SUMMARY                     ::
         :::::::::::::::::::::::::::::::::::::::::::::::::::::
         :: total energy            -185.526403976826 Eh    ::
         :: gradient norm              0.378593415530 Eh/a0 ::
         :: HOMO-LUMO gap              0.346634095599 eV    ::
         ::.................................................::
         :: SCC energy              -187.441638171053 Eh    ::
         :: -> isotropic ES            0.721006179380 Eh    ::
         :: -> anisotropic ES          0.016840253080 Eh    ::
         :: -> anisotropic XC          0.061721234861 Eh    ::
         :: -> dispersion             -0.132132694182 Eh    ::
         :: repulsion energy           1.915234194227 Eh    ::
         :: add. restraining           0.000000000000 Eh    ::
         :: total charge              -1.999999999990 e     ::
         :::::::::::::::::::::::::::::::::::::::::::::::::::::

           -------------------------------------------------
          |                Property Printout                |
           -------------------------------------------------

    * Orbital Energies and Occupations

         #    Occupation            Energy/Eh            Energy/eV
      -------------------------------------------------------------
         1        2.0000           -0.5987416             -16.2926
       ...           ...                  ...                  ...
       152        2.0000           -0.2558830              -6.9629
       153        2.0000           -0.2534382              -6.8964
       154        2.0000           -0.2525594              -6.8725
       155        2.0000           -0.2488308              -6.7710
       156        2.0000           -0.2461606              -6.6984
       157        2.0000           -0.2377021              -6.4682
       158        2.0000           -0.2029341              -5.5221
       159        2.0000           -0.2003892              -5.4529
       160        2.0000           -0.1936399              -5.2692
       161        2.0000           -0.1852200              -5.0401
       162        2.0000           -0.1712907              -4.6611
       163        2.0000           -0.1630095              -4.4357
       164        1.9976           -0.1289328              -3.5084 (HOMO)
       165        0.0024           -0.1161942              -3.1618 (LUMO)
       166        0.0000           -0.1076972              -2.9306
       167                         -0.1028597              -2.7990
       168                         -0.1011446              -2.7523
       169                         -0.0992645              -2.7011
       170                         -0.0957849              -2.6064
       171                         -0.0871260              -2.3708
       172                         -0.0801728              -2.1816
       173                         -0.0612250              -1.6660
       174                         -0.0435591              -1.1853
       175                         -0.0146773              -0.3994
       ...                                ...                  ...
       296                          0.9210137              25.0621
      -------------------------------------------------------------
                  HL-Gap            0.0127386 Eh            0.3466 eV
             Fermi-level           -0.1225635 Eh           -3.3351 eV

     #   Z          covCN         q      C6AA      α(0)
     1   7 N        2.667    -0.226    25.943     7.565
     2   6 C        3.766     0.026    20.170     6.401
     3   6 C        2.751     0.276    22.335     7.739
     4   8 O        0.861    -0.418    22.032     6.293
     5   7 N        2.682    -0.188    25.069     7.436
     6   6 C        3.798     0.009    20.425     6.435
     7   6 C        2.738     0.273    22.384     7.746
     8   6 C        3.787     0.021    20.235     6.407
     9   8 O        0.858    -0.391    21.510     6.218
    10   7 N        2.683    -0.171    24.705     7.382
    11   6 C        3.788    -0.036    21.230     6.562
    12   6 C        2.747     0.266    22.519     7.770
    13   6 C        3.777    -0.098    22.403     6.744
    14   6 C        3.791     0.043    19.864     6.347
    15   8 O        0.857    -0.488    23.531     6.504
    16   6 C        2.674     0.362    20.855     7.473
    17   7 N        2.697    -0.202    25.379     7.482
    18   6 C        3.821    -0.089    22.170     6.701
    19   8 O        0.856    -0.578    25.593     6.783
    20   8 O        0.860    -0.603    26.179     6.860
    21   6 C        2.746     0.243    22.930     7.841
    22   6 C        2.680     0.332    21.360     7.563
    23   6 C        3.779     0.029    20.111     6.389
    24   8 O        0.856    -0.520    24.242     6.601
    25   8 O        0.856    -0.518    24.196     6.595
    26   8 O        0.855    -0.600    26.108     6.851
    27   7 N        2.687    -0.189    25.096     7.440
    28   6 C        3.804    -0.055    21.554     6.609
    29   6 C        2.781     0.267    22.496     7.769
    30   6 C        3.783    -0.049    21.471     6.600
    31   6 C        3.792     0.038    19.952     6.361
    32   8 O        0.858    -0.444    22.587     6.372
    33   6 C        3.777    -0.070    21.862     6.662
    34   7 N        2.714    -0.189    25.104     7.441
    35   6 C        3.805    -0.064    21.728     6.636
    36   6 C        3.679     0.019    20.463     6.480
    37   6 C        2.743     0.282    22.217     7.718
    38   6 C        3.764    -0.022    21.006     6.533
    39   7 N        2.626    -0.353    29.107     8.013
    40   6 C        3.771     0.015    20.353     6.429
    41   8 O        0.858    -0.441    22.526     6.363
    42  16 S        1.922    -0.224   150.619    20.656
    43   7 N        2.694    -0.190    25.121     7.444
    44   6 C        3.857    -0.022    20.920     6.505
    45   6 C        3.739    -0.042    21.401     6.601
    46   6 C        2.748     0.271    22.425     7.754
    47   6 C        3.728    -0.094    22.397     6.756
    48   6 C        3.804    -0.065    21.739     6.638
    49   8 O        0.862    -0.457    22.848     6.409
    50   6 C        3.757    -0.113    22.712     6.795
    51   6 C        3.778    -0.065    21.769     6.647
    52   6 C        3.785    -0.060    21.662     6.629
    53   6 C        3.746     0.011    20.456     6.451
    54   7 N        2.687    -0.215    25.697     7.529
    55   6 C        2.749     0.232    23.131     7.875
    56   7 N        1.786    -0.455    32.950     8.502
    57   7 N        2.644    -0.308    27.920     7.848
    58   6 C        3.707    -0.112    22.806     6.826
    59   1 H        0.850     0.195     1.133     1.668
    60   1 H        0.926     0.061     2.189     2.314
    61   1 H        0.857     0.185     1.184     1.705
    62   1 H        0.919     0.110     1.699     2.039
    63   1 H        0.926     0.082     1.962     2.190
    64   1 H        0.862     0.191     1.155     1.683
    65   1 H        0.901     0.028     2.624     2.535
    66   1 H        0.928     0.056     2.244     2.342
    67   1 H        0.926     0.016     2.801     2.617
    68   1 H        0.901     0.012     2.859     2.646
    69   1 H        0.919     0.060     2.197     2.318
    70   1 H        0.850     0.250     0.885     1.475
    71   1 H        0.919     0.023     2.687     2.564
    72   1 H        0.926     0.049     2.336     2.390
    73   1 H        0.924     0.067     2.117     2.275
    74   1 H        0.861     0.189     1.165     1.691
    75   1 H        0.919     0.034     2.536     2.491
    76   1 H        0.928     0.049     2.338     2.391
    77   1 H        0.915     0.025     2.665     2.553
    78   1 H        0.923     0.042     2.423     2.434
    79   1 H        0.925     0.043     2.410     2.428
    80   1 H        0.918     0.039     2.466     2.456
    81   1 H        0.927     0.025     2.662     2.551
    82   1 H        0.858     0.184     1.194     1.712
    83   1 H        0.927     0.078     1.996     2.209
    84   1 H        0.920     0.080     1.980     2.201
    85   1 H        0.905     0.014     2.827     2.631
    86   1 H        0.910     0.011     2.879     2.654
    87   1 H        0.918     0.045     2.391     2.418
    88   1 H        0.925     0.051     2.306     2.375
    89   1 H        0.861     0.187     1.176     1.699
    90   1 H        0.861     0.140     1.469     1.899
    91   1 H        0.905     0.059     2.213     2.327
    92   1 H        0.860     0.186     1.178     1.700
    93   1 H        0.919     0.056     2.252     2.347
    94   1 H        0.922     0.064     2.150     2.293
    95   1 H        0.922     0.047     2.364     2.405
    96   1 H        0.926     0.046     2.369     2.407
    97   1 H        0.915     0.033     2.540     2.493
    98   1 H        0.915     0.028     2.614     2.529
    99   1 H        0.915     0.028     2.616     2.530
   100   1 H        0.928     0.046     2.375     2.410
   101   1 H        0.925     0.054     2.275     2.359
   102   1 H        0.926     0.029     2.599     2.521
   103   1 H        0.926     0.034     2.524     2.484
   104   1 H        0.930     0.047     2.354     2.399
   105   1 H        0.922     0.052     2.290     2.367
   106   1 H        0.917     0.050     2.318     2.381
   107   1 H        0.925     0.039     2.464     2.455
   108   1 H        0.916     0.042     2.421     2.434
   109   1 H        0.924     0.056     2.247     2.344
   110   1 H        0.927     0.031     2.568     2.506
   111   1 H        0.857     0.155     1.369     1.833
   112   1 H        0.863     0.134     1.518     1.930
   113   1 H        0.861     0.170     1.274     1.768
   114   1 H        0.856     0.165     1.304     1.789
   115   1 H        0.918     0.077     2.013     2.219
   116   1 H        0.923     0.033     2.538     2.491
   117   1 H        0.893     0.028     2.620     2.533

 Mol. C6AA /au·bohr⁶  :     136484.353927
 Mol. C8AA /au·bohr⁸  :    3093369.378978
 Mol. α(0) /au        :        551.785226


Wiberg/Mayer (AO) data.
largest (>0.10) Wiberg bond orders for each atom

 ---------------------------------------------------------------------------
     #   Z sym  total        # sym  WBO       # sym  WBO       # sym  WBO
 ---------------------------------------------------------------------------
     1   7 N    3.370 --     7 C    1.162     2 C    0.997    59 H    0.906
                             9 O    0.199
     2   6 C    3.969 --     1 N    0.997    51 C    0.965    60 H    0.945
                             3 C    0.939
     3   6 C    3.935 --     4 O    1.710     5 N    1.201     2 C    0.939
     4   8 O    2.048 --     3 C    1.710     5 N    0.186
     5   7 N    3.403 --     3 C    1.201     6 C    0.999    61 H    0.929
                             4 O    0.186
     6   6 C    3.963 --     5 N    0.999    58 C    0.983    46 C    0.952
                            62 H    0.899
     7   6 C    3.933 --     9 O    1.760     1 N    1.162     8 C    0.933
     8   6 C    3.946 --    11 C    0.991    63 H    0.944    10 N    0.938
                             7 C    0.933
     9   8 O    2.081 --     7 C    1.760     1 N    0.199
    10   7 N    3.469 --    12 C    1.323     8 C    0.938    64 H    0.924
                            15 O    0.193
    11   6 C    3.982 --    13 C    1.012     8 C    0.991    66 H    0.966
                            65 H    0.959
    12   6 C    3.950 --    15 O    1.587    10 N    1.323    14 C    0.947
    13   6 C    3.958 --    11 C    1.012    67 H    0.975    68 H    0.966
                            16 C    0.852
    14   6 C    3.961 --    17 N    0.977    18 C    0.973    12 C    0.947
                            69 H    0.944
    15   8 O    1.930 --    12 C    1.587    10 N    0.193
    16   6 C    3.942 --    19 O    1.547    20 O    1.517    13 C    0.852
    17   7 N    3.468 --    21 C    1.363    14 C    0.977    70 H    0.780
                            24 O    0.205
    18   6 C    3.979 --    72 H    0.976    14 C    0.973    71 H    0.967
                            22 C    0.914
    19   8 O    1.876 --    16 C    1.547    20 O    0.227
    20   8 O    1.821 --    16 C    1.517    19 O    0.227
    21   6 C    3.955 --    24 O    1.561    17 N    1.363    23 C    0.936
    22   6 C    3.945 --    25 O    1.616    26 O    1.389    18 C    0.914
    23   6 C    3.953 --    28 C    0.986    73 H    0.959    27 N    0.949
                            21 C    0.936
    24   8 O    1.908 --    21 C    1.561    17 N    0.205
    25   8 O    1.919 --    22 C    1.616    26 O    0.222
    26   8 O    1.877 --    22 C    1.389    25 O    0.222    70 H    0.125
    27   7 N    3.456 --    29 C    1.291    23 C    0.949    74 H    0.930
                            32 O    0.207
    28   6 C    3.991 --    30 C    0.998    23 C    0.986    76 H    0.972
                            75 H    0.970
    29   6 C    3.957 --    32 O    1.655    27 N    1.291    31 C    0.943
    30   6 C    3.992 --    33 C    1.006    28 C    0.998    78 H    0.978
                            77 H    0.975
    31   6 C    3.961 --    35 C    1.001    79 H    0.957    29 C    0.943
                            34 N    0.937
    32   8 O    1.977 --    29 C    1.655    27 N    0.207
    33   6 C    3.988 --    30 C    1.006    81 H    0.980    80 H    0.972
                            36 C    0.968
    34   7 N    3.400 --    37 C    1.263    31 C    0.937    82 H    0.917
                            41 O    0.183
    35   6 C    3.984 --    38 C    1.013    31 C    1.001    84 H    0.962
                            83 H    0.951
    36   6 C    3.983 --    39 N    1.046    85 H    0.977    86 H    0.974
                            33 C    0.968
    37   6 C    3.947 --    41 O    1.687    34 N    1.263    40 C    0.917
    38   6 C    3.967 --    35 C    1.013    88 H    0.975    87 H    0.969
                            42 S    0.963
    39   7 N    3.015 --    36 C    1.046    90 H    0.963    89 H    0.939
    40   6 C    3.963 --    43 N    0.986    44 C    0.969    91 H    0.940
                            37 C    0.917
    41   8 O    1.995 --    37 C    1.687    34 N    0.183
    42  16 S    2.073 --    45 C    1.019    38 C    0.963
    43   7 N    3.447 --    46 C    1.257    40 C    0.986    92 H    0.917
                            49 O    0.189
    44   6 C    3.988 --    47 C    1.005    48 C    1.001    40 C    0.969
                            93 H    0.956
    45   6 C    3.981 --    42 S    1.019    96 H    0.985    95 H    0.983
                            94 H    0.976
    46   6 C    3.952 --    49 O    1.658    43 N    1.257     6 C    0.952
    47   6 C    3.991 --    44 C    1.005    99 H    0.988    97 H    0.983
                            98 H    0.982
    48   6 C    3.996 --    50 C    1.007    44 C    1.001   100 H    0.978
                           101 H    0.973
    49   8 O    1.984 --    46 C    1.658    43 N    0.189
    50   6 C    3.988 --    48 C    1.007   103 H    0.987   102 H    0.987
                           104 H    0.986
    51   6 C    3.986 --    52 C    1.012   105 H    0.978   106 H    0.971
                             2 C    0.965
    52   6 C    3.993 --    51 C    1.012    53 C    0.992   107 H    0.979
                           108 H    0.976
    53   6 C    3.977 --    54 N    0.998    52 C    0.992   110 H    0.970
                           109 H    0.966
    54   7 N    3.319 --    55 C    1.145    53 C    0.998   111 H    0.939
                            56 N    0.151
    55   6 C    3.960 --    56 N    1.664    54 N    1.145    57 N    1.124
    56   7 N    2.914 --    55 C    1.664   112 H    0.939    54 N    0.151
                            57 N    0.106
    57   7 N    3.216 --    55 C    1.124   114 H    0.956   113 H    0.953
                            56 N    0.106
    58   6 C    3.984 --     6 C    0.983   117 H    0.980   116 H    0.976
                           115 H    0.975
    59   1 H    0.962 --     1 N    0.906
    60   1 H    0.996 --     2 C    0.945
    61   1 H    0.966 --     5 N    0.929
    62   1 H    0.988 --     6 C    0.899
    63   1 H    0.993 --     8 C    0.944
    64   1 H    0.964 --    10 N    0.924
    65   1 H    0.999 --    11 C    0.959
    66   1 H    0.996 --    11 C    0.966
    67   1 H    1.000 --    13 C    0.975
    68   1 H    1.000 --    13 C    0.966
    69   1 H    0.995 --    14 C    0.944
    70   1 H    0.937 --    17 N    0.780    26 O    0.125
    71   1 H    0.999 --    18 C    0.967
    72   1 H    0.997 --    18 C    0.976
    73   1 H    0.995 --    23 C    0.959
    74   1 H    0.964 --    27 N    0.930
    75   1 H    0.998 --    28 C    0.970
    76   1 H    0.998 --    28 C    0.972
    77   1 H    0.999 --    30 C    0.975
    78   1 H    0.998 --    30 C    0.978
    79   1 H    0.998 --    31 C    0.957
    80   1 H    0.998 --    33 C    0.972
    81   1 H    0.999 --    33 C    0.980
    82   1 H    0.966 --    34 N    0.917
    83   1 H    0.993 --    35 C    0.951
    84   1 H    0.994 --    35 C    0.962
    85   1 H    0.999 --    36 C    0.977
    86   1 H    1.000 --    36 C    0.974
    87   1 H    0.998 --    38 C    0.969
    88   1 H    0.997 --    38 C    0.975
    89   1 H    0.965 --    39 N    0.939
    90   1 H    0.980 --    39 N    0.963
    91   1 H    0.996 --    40 C    0.940
    92   1 H    0.965 --    43 N    0.917
    93   1 H    0.996 --    44 C    0.956
    94   1 H    0.996 --    45 C    0.976
    95   1 H    0.998 --    45 C    0.983
    96   1 H    0.998 --    45 C    0.985
    97   1 H    0.999 --    47 C    0.983
    98   1 H    0.999 --    47 C    0.982
    99   1 H    0.999 --    47 C    0.988
   100   1 H    0.998 --    48 C    0.978
   101   1 H    0.997 --    48 C    0.973
   102   1 H    0.999 --    50 C    0.987
   103   1 H    0.999 --    50 C    0.987
   104   1 H    0.998 --    50 C    0.986
   105   1 H    0.997 --    51 C    0.978
   106   1 H    0.997 --    51 C    0.971
   107   1 H    0.998 --    52 C    0.979
   108   1 H    0.998 --    52 C    0.976
   109   1 H    0.997 --    53 C    0.966
   110   1 H    0.999 --    53 C    0.970
   111   1 H    0.976 --    54 N    0.939
   112   1 H    0.982 --    56 N    0.939
   113   1 H    0.971 --    57 N    0.953
   114   1 H    0.972 --    57 N    0.956
   115   1 H    0.994 --    58 C    0.975
   116   1 H    0.999 --    58 C    0.976
   117   1 H    0.999 --    58 C    0.980
 ---------------------------------------------------------------------------

Topologies differ in total number of bonds
Writing topology from bond orders to xtbtopo.mol

molecular dipole:
                 x           y           z       tot (Debye)
 q only:        2.173      14.413       0.828
   full:        2.477      14.563       1.108      37.653
molecular quadrupole (traceless):
                xx          xy          yy          xz          yz          zz
 q only:       14.606      12.264    -113.136      50.895     -80.925      98.530
  q+dip:        3.701      24.469    -109.920      41.585     -86.329     106.218
   full:        2.562      25.348    -109.238      41.318     -86.170     106.676


           -------------------------------------------------
          | TOTAL ENERGY             -185.526403976826 Eh   |
          | GRADIENT NORM               0.378593415530 Eh/α |
          | HOMO-LUMO GAP               0.346634095599 eV   |
           -------------------------------------------------

------------------------------------------------------------------------
 * finished run on 2026/05/23 at 13:01:33.589     
------------------------------------------------------------------------
 total:
 * wall-time:     0 d,  0 h,  0 min,  2.673 sec
 *  cpu-time:     0 d,  0 h,  0 min, 38.564 sec
 * ratio c/w:    14.429 speedup
 SCF:
 * wall-time:     0 d,  0 h,  0 min,  2.534 sec
 *  cpu-time:     0 d,  0 h,  0 min, 37.270 sec
 * ratio c/w:    14.708 speedup

normal termination of xtb
