      -----------------------------------------------------------      
     |                   =====================                   |     
     |                           x T B                           |     
     |                   =====================                   |     
     |                         S. Grimme                         |     
     |          Mulliken Center for Theoretical Chemistry        |     
     |                    University of Bonn                     |     
      -----------------------------------------------------------      

   * xtb version 6.7.1 (edcfbbe) compiled by 'albert@albert-system' on 2024-07-22

   xtb is free software: you can redistribute it and/or modify it under
   the terms of the GNU Lesser General Public License as published by
   the Free Software Foundation, either version 3 of the License, or
   (at your option) any later version.
   
   xtb is distributed in the hope that it will be useful,
   but WITHOUT ANY WARRANTY; without even the implied warranty of
   MERCHANTABILITY or FITNESS FOR A PARTICULAR PURPOSE.  See the
   GNU Lesser General Public License for more details.
   
   Cite this work as:
   * C. Bannwarth, E. Caldeweyher, S. Ehlert, A. Hansen, P. Pracht,
     J. Seibert, S. Spicher, S. Grimme, WIREs Comput. Mol. Sci., 2020, 11,
     e01493. DOI: 10.1002/wcms.1493
   
   for GFN2-xTB:
   * C. Bannwarth, S. Ehlert and S. Grimme., J. Chem. Theory Comput., 2019,
     15, 1652-1671. DOI: 10.1021/acs.jctc.8b01176
   for GFN1-xTB:
   * S. Grimme, C. Bannwarth, P. Shushkov, J. Chem. Theory Comput., 2017,
     13, 1989-2009. DOI: 10.1021/acs.jctc.7b00118
   for GFN0-xTB:
   * P. Pracht, E. Caldeweyher, S. Ehlert, S. Grimme, ChemRxiv, 2019, preprint.
     DOI: 10.26434/chemrxiv.8326202.v1
   for GFN-FF:
   * S. Spicher and S. Grimme, Angew. Chem. Int. Ed., 2020, 59, 15665-15673.
     DOI: 10.1002/anie.202004239
   
   for ALPB and GBSA implicit solvation:
   * S. Ehlert, M. Stahn, S. Spicher, S. Grimme, J. Chem. Theory Comput.,
     2021, 17, 4250-4261. DOI: 10.1021/acs.jctc.1c00471
   
   for ddCOSMO and CPCM-X implicit solvation:
   * M. Stahn, S. Ehlert, S. Grimme, J. Phys. Chem. A,
     2023, XX, XXXX-XXXX. DOI: 10.1021/acs.jpca.3c04382
   
   for DFT-D4:
   * E. Caldeweyher, C. Bannwarth and S. Grimme, J. Chem. Phys., 2017,
     147, 034112. DOI: 10.1063/1.4993215
   * E. Caldeweyher, S. Ehlert, A. Hansen, H. Neugebauer, S. Spicher,
     C. Bannwarth and S. Grimme, J. Chem. Phys., 2019, 150, 154122.
     DOI: 10.1063/1.5090222
   * E. Caldeweyher, J.-M. Mewes, S. Ehlert and S. Grimme, Phys. Chem. Chem. Phys.
     2020, 22, 8499-8512. DOI: 10.1039/D0CP00502A
   
   for sTDA-xTB:
   * S. Grimme and C. Bannwarth, J. Chem. Phys., 2016, 145, 054103.
     DOI: 10.1063/1.4959605
   
   in the mass-spec context:
   * V. Asgeirsson, C. Bauer and S. Grimme, Chem. Sci., 2017, 8, 4879.
     DOI: 10.1039/c7sc00601b
   * J. Koopman and S. Grimme, ACS Omega 2019, 4, 12, 15120-15133.
     DOI: 10.1021/acsomega.9b02011
   
   for metadynamics refer to:
   * S. Grimme, J. Chem. Theory Comput., 2019, 155, 2847-2862
     DOI: 10.1021/acs.jctc.9b00143
   
   for SPH calculations refer to:
   * S. Spicher and S. Grimme, J. Chem. Theory Comput., 2021, 17, 1701-1714
     DOI: 10.1021/acs.jctc.0c01306
   
   for ONIOM refer to:
   * C. Plett, A. Katbashev, S. Ehlert, S. Grimme, M. Bursch,
     Phys. Chem. Chem. Phys., 2023, 25, 17860-17868. DOI: 10.1039/D3CP02178E
   
   for DIPRO refer to:
   * J. Kohn, N. Gildemeister, S. Grimme, D. Fazzi, A. Hansen,
     J. Chem. Phys., 2023, just accepted.
   
   for PTB refer to:
   * S. Grimme, M. Mueller, A. Hansen, J. Chem. Phys., 2023, 158, 124111.
     DOI: 10.1063/5.0137838
   
   with help from (in alphabetical order)
   P. Atkinson, C. Bannwarth, F. Bohle, G. Brandenburg, E. Caldeweyher
   M. Checinski, S. Dohm, S. Ehlert, S. Ehrlich, I. Gerasimov, C. Hölzer
   A. Katbashev, J. Kohn, J. Koopman, C. Lavigne, S. Lehtola, F. März, M. Müller,
   F. Musil, H. Neugebauer, J. Pisarek, C. Plett, P. Pracht, F. Pultar,
   J. Seibert, P. Shushkov, S. Spicher, M. Stahn, M. Steiner, T. Strunk,
   J. Stückrath, T. Rose, and J. Unsleber
   
 * started run on 2026/05/23 at 12:40:07.851     
   ID    Z sym.   atoms
    1    7 N      1, 5, 10, 17, 18, 25, 30, 33
    2    6 C      2, 3, 6-8, 11-14, 19-23, 26-28, 31, 32, 34, 36-39
    3    8 O      4, 9, 15, 16, 24, 29, 35
    4    1 H      40-77

           -------------------------------------------------
          |                Calculation Setup                |
           -------------------------------------------------

          program call               : /home/xchen/software/xtb-6.7.1/xtb-dist/bin/xtb /home/xchen/Test/benchmark/md_sampled/05_5_0513_0/snap_0142.xyz --charge 0 --gfn 2 --norestart
          coordinate file            : /home/xchen/Test/benchmark/md_sampled/05_5_0513_0/snap_0142.xyz
          omp threads                :                    48


           -------------------------------------------------
          |                 G F N 2 - x T B                 |
           -------------------------------------------------

        Reference                      10.1021/acs.jctc.8b01176
      * Hamiltonian:
        H0-scaling (s, p, d)           1.850000    2.230000    2.230000
        zeta-weighting                 0.500000
      * Dispersion:
        s8                             2.700000
        a1                             0.520000
        a2                             5.000000
        s9                             5.000000
      * Repulsion:
        kExp                           1.500000    1.000000
        rExp                           1.000000
      * Coulomb:
        alpha                          2.000000
        third order                    shell-resolved
        anisotropic                    true
        a3                             3.000000
        a5                             4.000000
        cn-shift                       1.200000
        cn-exp                         4.000000
        max-rad                        5.000000


          ...................................................
          :                      SETUP                      :
          :.................................................:
          :  # basis functions                 194          :
          :  # atomic orbitals                 194          :
          :  # shells                          116          :
          :  # electrons                       216          :
          :  max. iterations                   250          :
          :  Hamiltonian                  GFN2-xTB          :
          :  restarted?                      false          :
          :  GBSA solvation                  false          :
          :  PC potential                    false          :
          :  electronic temp.          300.0000000     K    :
          :  accuracy                    1.0000000          :
          :  -> integral cutoff          0.2500000E+02      :
          :  -> integral neglect         0.1000000E-07      :
          :  -> SCF convergence          0.1000000E-05 Eh   :
          :  -> wf. convergence          0.1000000E-03 e    :
          :  Broyden damping             0.4000000          :
          :  net charge                          0          :
          :  unpaired electrons                  0          :
          ...................................................

 iter      E             dE          RMSdq      gap      omega  full diag
   1   -123.6027798 -0.123603E+03  0.404E+00    4.02       0.0  T
   2   -123.9189833 -0.316203E+00  0.221E+00    3.74       1.0  T
   3   -123.9369299 -0.179466E-01  0.121E+00    3.69       1.0  T
   4   -123.9386613 -0.173142E-02  0.320E-01    3.51       1.0  T
   5   -123.9441979 -0.553657E-02  0.124E-01    3.56       1.0  T
   6   -123.9446256 -0.427722E-03  0.660E-02    3.57       1.0  T
   7   -123.9447265 -0.100952E-03  0.254E-02    3.59       1.0  T
   8   -123.9447341 -0.757886E-05  0.794E-03    3.59       1.4  T
   9   -123.9447348 -0.719913E-06  0.301E-03    3.59       3.8  T
  10   -123.9447349 -0.681684E-07  0.121E-03    3.59       9.4  T
  11   -123.9447349 -0.142917E-07  0.397E-04    3.59      28.7  T
  12   -123.9447349 -0.412135E-08  0.142E-04    3.59      80.2  T

   *** convergence criteria satisfied after 12 iterations ***

         #    Occupation            Energy/Eh            Energy/eV
      -------------------------------------------------------------
         1        2.0000           -0.7235858             -19.6898
       ...           ...                  ...                  ...
       102        2.0000           -0.4086709             -11.1205
       103        2.0000           -0.4060055             -11.0480
       104        2.0000           -0.4005038             -10.8983
       105        2.0000           -0.3970531             -10.8044
       106        2.0000           -0.3939256             -10.7193
       107        2.0000           -0.3908851             -10.6365
       108        2.0000           -0.3860987             -10.5063 (HOMO)
       109                         -0.2542799              -6.9193 (LUMO)
       110                         -0.2422847              -6.5929
       111                         -0.2395027              -6.5172
       112                         -0.2238679              -6.0918
       113                         -0.2179604              -5.9310
       ...                                ...                  ...
       194                          0.7075413              19.2532
      -------------------------------------------------------------
                  HL-Gap            0.1318188 Eh            3.5870 eV
             Fermi-level           -0.3201893 Eh           -8.7128 eV

 SCC (total)                   0 d,  0 h,  0 min, 10.664 sec
 SCC setup                      ...        0 min,  0.046 sec (  0.431%)
 Dispersion                     ...        0 min,  0.098 sec (  0.919%)
 classical contributions        ...        0 min,  0.009 sec (  0.088%)
 integral evaluation            ...        0 min,  0.361 sec (  3.383%)
 iterations                     ...        0 min,  9.495 sec ( 89.038%)
 molecular gradient             ...        0 min,  0.641 sec (  6.012%)
 printout                       ...        0 min,  0.014 sec (  0.127%)

         :::::::::::::::::::::::::::::::::::::::::::::::::::::
         ::                     SUMMARY                     ::
         :::::::::::::::::::::::::::::::::::::::::::::::::::::
         :: total energy            -122.556368221739 Eh    ::
         :: gradient norm              0.324646041370 Eh/a0 ::
         :: HOMO-LUMO gap              3.586972008491 eV    ::
         ::.................................................::
         :: SCC energy              -123.940988799654 Eh    ::
         :: -> isotropic ES            0.271627925066 Eh    ::
         :: -> anisotropic ES          0.005327194721 Eh    ::
         :: -> anisotropic XC          0.041203093600 Eh    ::
         :: -> dispersion             -0.092486341947 Eh    ::
         :: repulsion energy           1.384620577915 Eh    ::
         :: add. restraining           0.000000000000 Eh    ::
         :: total charge              -0.000000000000 e     ::
         :::::::::::::::::::::::::::::::::::::::::::::::::::::

           -------------------------------------------------
          |                Property Printout                |
           -------------------------------------------------

    * Orbital Energies and Occupations

         #    Occupation            Energy/Eh            Energy/eV
      -------------------------------------------------------------
         1        2.0000           -0.7235858             -19.6898
       ...           ...                  ...                  ...
        96        2.0000           -0.4261477             -11.5961
        97        2.0000           -0.4211792             -11.4609
        98        2.0000           -0.4191142             -11.4047
        99        2.0000           -0.4179552             -11.3731
       100        2.0000           -0.4166202             -11.3368
       101        2.0000           -0.4142986             -11.2736
       102        2.0000           -0.4086709             -11.1205
       103        2.0000           -0.4060055             -11.0480
       104        2.0000           -0.4005038             -10.8983
       105        2.0000           -0.3970531             -10.8044
       106        2.0000           -0.3939256             -10.7193
       107        2.0000           -0.3908851             -10.6365
       108        2.0000           -0.3860987             -10.5063 (HOMO)
       109                         -0.2542799              -6.9193 (LUMO)
       110                         -0.2422847              -6.5929
       111                         -0.2395027              -6.5172
       112                         -0.2238679              -6.0918
       113                         -0.2179604              -5.9310
       114                         -0.2164266              -5.8893
       115                         -0.2136347              -5.8133
       116                         -0.2066259              -5.6226
       117                         -0.0891591              -2.4261
       118                         -0.0476373              -1.2963
       119                         -0.0391272              -1.0647
       ...                                ...                  ...
       194                          0.7075413              19.2532
      -------------------------------------------------------------
                  HL-Gap            0.1318188 Eh            3.5870 eV
             Fermi-level           -0.3201893 Eh           -8.7128 eV

     #   Z          covCN         q      C6AA      α(0)
     1   7 N        2.675    -0.267    26.921     7.706
     2   6 C        3.813     0.022    20.203     6.398
     3   6 C        2.786     0.291    22.063     7.694
     4   8 O        0.858    -0.435    22.383     6.343
     5   7 N        2.728    -0.191    25.145     7.448
     6   6 C        3.773     0.011    20.413     6.438
     7   6 C        2.750     0.273    22.380     7.746
     8   6 C        3.773     0.022    20.235     6.410
     9   8 O        0.856    -0.354    20.775     6.111
    10   7 N        2.687    -0.189    25.098     7.441
    11   6 C        3.796    -0.103    22.462     6.749
    12   6 C        2.765     0.277    22.317     7.737
    13   6 C        2.742     0.285    22.167     7.709
    14   6 C        3.784     0.019    20.280     6.415
    15   8 O        0.860    -0.436    22.420     6.348
    16   8 O        0.860    -0.406    21.791     6.259
    17   7 N        2.632    -0.286    27.372     7.770
    18   7 N        2.695    -0.181    24.927     7.415
    19   6 C        3.822    -0.030    21.093     6.536
    20   6 C        2.763     0.269    22.452     7.760
    21   6 C        3.736    -0.128    23.056     6.852
    22   6 C        3.734    -0.121    22.913     6.832
    23   6 C        3.788     0.022    20.212     6.403
    24   8 O        0.868    -0.444    22.581     6.371
    25   7 N        2.699    -0.141    24.046     7.283
    26   6 C        3.800    -0.081    22.054     6.686
    27   6 C        2.769     0.272    22.400     7.751
    28   6 C        3.159     0.058    26.398     8.400
    29   8 O        0.857    -0.477    23.287     6.470
    30   7 N        1.869    -0.273    27.946     7.836
    31   6 C        2.912    -0.027    28.685     8.782
    32   6 C        3.050     0.099    25.754     8.323
    33   7 N        2.761    -0.136    23.950     7.268
    34   6 C        3.706     0.068    19.576     6.325
    35   8 O        1.619    -0.461    22.089     6.344
    36   6 C        3.843    -0.016    20.839     6.494
    37   6 C        3.734    -0.108    22.660     6.794
    38   6 C        3.808    -0.055    21.560     6.610
    39   6 C        3.743    -0.099    22.471     6.763
    40   1 H        0.853     0.192     1.150     1.680
    41   1 H        0.923     0.076     2.021     2.223
    42   1 H        0.859     0.203     1.092     1.637
    43   1 H        0.914     0.068     2.108     2.271
    44   1 H        0.898     0.078     2.001     2.213
    45   1 H        0.860     0.199     1.111     1.651
    46   1 H        0.919     0.055     2.254     2.348
    47   1 H        0.923     0.073     2.049     2.238
    48   1 H        0.922     0.102     1.770     2.081
    49   1 H        0.862     0.215     1.033     1.592
    50   1 H        0.855     0.201     1.102     1.645
    51   1 H        0.861     0.202     1.094     1.638
    52   1 H        0.925     0.042     2.420     2.433
    53   1 H        0.929     0.047     2.357     2.400
    54   1 H        0.919     0.042     2.429     2.438
    55   1 H        0.929     0.051     2.306     2.375
    56   1 H        0.921     0.041     2.437     2.442
    57   1 H        0.926     0.050     2.321     2.382
    58   1 H        0.929     0.060     2.196     2.317
    59   1 H        0.924     0.081     1.972     2.196
    60   1 H        0.860     0.215     1.033     1.592
    61   1 H        0.924     0.055     2.259     2.351
    62   1 H        0.927     0.065     2.138     2.286
    63   1 H        0.924     0.045     2.384     2.415
    64   1 H        0.928     0.054     2.272     2.357
    65   1 H        0.861     0.169     1.278     1.771
    66   1 H        0.924     0.044     2.399     2.422
    67   1 H        0.928     0.069     2.096     2.264
    68   1 H        0.775     0.309     0.702     1.319
    69   1 H        0.925     0.047     2.363     2.404
    70   1 H        0.922     0.044     2.394     2.420
    71   1 H        0.910     0.035     2.525     2.485
    72   1 H        0.926     0.062     2.173     2.305
    73   1 H        0.920     0.032     2.556     2.500
    74   1 H        0.925     0.036     2.497     2.471
    75   1 H        0.918     0.022     2.709     2.574
    76   1 H        0.922     0.037     2.488     2.467
    77   1 H        0.928     0.040     2.449     2.447

 Mol. C6AA /au·bohr⁶  :      57208.382043
 Mol. C8AA /au·bohr⁸  :    1274965.332120
 Mol. α(0) /au        :        358.069032


Wiberg/Mayer (AO) data.
largest (>0.10) Wiberg bond orders for each atom

 ---------------------------------------------------------------------------
     #   Z sym  total        # sym  WBO       # sym  WBO       # sym  WBO
 ---------------------------------------------------------------------------
     1   7 N    3.272 --     7 C    1.140     2 C    0.954    40 H    0.866
                             9 O    0.167
     2   6 C    3.963 --    34 C    0.968     3 C    0.968    41 H    0.955
                             1 N    0.954
     3   6 C    3.957 --     4 O    1.655     5 N    1.258     2 C    0.968
     4   8 O    2.001 --     3 C    1.655     5 N    0.198
     5   7 N    3.439 --     3 C    1.258     6 C    0.973    42 H    0.893
                             4 O    0.198
     6   6 C    3.961 --     5 N    0.973    36 C    0.967    43 H    0.954
                            27 C    0.915
     7   6 C    3.939 --     9 O    1.823     1 N    1.140     8 C    0.907
     8   6 C    3.959 --    11 C    0.981    10 N    0.977    44 H    0.938
                             7 C    0.907
     9   8 O    2.114 --     7 C    1.823     1 N    0.167
    10   7 N    3.399 --    12 C    1.224     8 C    0.977    45 H    0.913
                            15 O    0.176
    11   6 C    3.991 --     8 C    0.981    47 H    0.962    13 C    0.941
                            46 H    0.922
    12   6 C    3.947 --    15 O    1.689    10 N    1.224    14 C    0.955
    13   6 C    3.949 --    16 O    1.743    17 N    1.236    11 C    0.941
    14   6 C    3.959 --    19 C    0.974    18 N    0.966    12 C    0.955
                            48 H    0.944
    15   8 O    1.992 --    12 C    1.689    10 N    0.176
    16   8 O    2.050 --    13 C    1.743    17 N    0.196
    17   7 N    3.341 --    13 C    1.236    50 H    0.936    49 H    0.932
                            16 O    0.196
    18   7 N    3.450 --    20 C    1.288    14 C    0.966    51 H    0.903
                            24 O    0.200
    19   6 C    3.985 --    21 C    0.996    22 C    0.994    14 C    0.974
                            52 H    0.973
    20   6 C    3.958 --    24 O    1.664    18 N    1.288    23 C    0.943
    21   6 C    3.984 --    19 C    0.996    55 H    0.988    53 H    0.985
                            54 H    0.981
    22   6 C    3.987 --    19 C    0.994    56 H    0.989    58 H    0.987
                            57 H    0.985
    23   6 C    3.962 --    25 N    0.980    26 C    0.965    59 H    0.958
                            20 C    0.943
    24   8 O    1.975 --    20 C    1.664    18 N    0.200
    25   7 N    3.478 --    27 C    1.327    23 C    0.980    60 H    0.907
                            29 O    0.179
    26   6 C    3.993 --    28 C    1.000    61 H    0.973    23 C    0.965
                            62 H    0.954
    27   6 C    3.944 --    29 O    1.613    25 N    1.327     6 C    0.915
    28   6 C    3.970 --    31 C    1.615    30 N    1.230    26 C    1.000
    29   8 O    1.968 --    27 C    1.613    25 N    0.179
    30   7 N    3.046 --    32 C    1.607    28 C    1.230    33 N    0.117
    31   6 C    3.934 --    28 C    1.615    33 N    1.154    63 H    0.970
                            32 C    0.114
    32   6 C    3.959 --    30 N    1.607    33 N    1.222    64 H    0.964
                            31 C    0.114
    33   7 N    3.515 --    32 C    1.222    31 C    1.154    65 H    0.946
                            30 N    0.117
    34   6 C    3.963 --    35 O    0.997    67 H    0.973     2 C    0.968
                            66 H    0.958
    35   8 O    1.925 --    34 C    0.997    68 H    0.859
    36   6 C    3.989 --    38 C    1.002    37 C    0.992     6 C    0.967
                            69 H    0.964
    37   6 C    3.988 --    36 C    0.992    70 H    0.988    71 H    0.986
                            72 H    0.981
    38   6 C    3.993 --    39 C    1.012    36 C    1.002    74 H    0.975
                            73 H    0.957
    39   6 C    3.993 --    38 C    1.012    75 H    0.988    77 H    0.987
                            76 H    0.985
    40   1 H    0.963 --     1 N    0.866
    41   1 H    0.993 --     2 C    0.955
    42   1 H    0.959 --     5 N    0.893
    43   1 H    0.995 --     6 C    0.954
    44   1 H    0.993 --     8 C    0.938
    45   1 H    0.960 --    10 N    0.913
    46   1 H    0.997 --    11 C    0.922
    47   1 H    0.994 --    11 C    0.962
    48   1 H    0.989 --    14 C    0.944
    49   1 H    0.954 --    17 N    0.932
    50   1 H    0.960 --    17 N    0.936
    51   1 H    0.959 --    18 N    0.903
    52   1 H    0.998 --    19 C    0.973
    53   1 H    0.998 --    21 C    0.985
    54   1 H    0.998 --    21 C    0.981
    55   1 H    0.997 --    21 C    0.988
    56   1 H    0.998 --    22 C    0.989
    57   1 H    0.998 --    22 C    0.985
    58   1 H    0.996 --    22 C    0.987
    59   1 H    0.993 --    23 C    0.958
    60   1 H    0.953 --    25 N    0.907
    61   1 H    0.996 --    26 C    0.973
    62   1 H    0.996 --    26 C    0.954
    63   1 H    0.998 --    31 C    0.970
    64   1 H    0.997 --    32 C    0.964
    65   1 H    0.971 --    33 N    0.946
    66   1 H    0.998 --    34 C    0.958
    67   1 H    0.995 --    34 C    0.973
    68   1 H    0.905 --    35 O    0.859
    69   1 H    0.997 --    36 C    0.964
    70   1 H    0.997 --    37 C    0.988
    71   1 H    0.999 --    37 C    0.986
    72   1 H    0.996 --    37 C    0.981
    73   1 H    0.999 --    38 C    0.957
    74   1 H    0.999 --    38 C    0.975
    75   1 H    0.999 --    39 C    0.988
    76   1 H    0.999 --    39 C    0.985
    77   1 H    0.998 --    39 C    0.987
 ---------------------------------------------------------------------------

Topologies differ in total number of bonds
Writing topology from bond orders to xtbtopo.mol

molecular dipole:
                 x           y           z       tot (Debye)
 q only:       -2.824      -1.965      -2.729
   full:       -3.641      -2.500      -3.164      13.808
molecular quadrupole (traceless):
                xx          xy          yy          xz          yz          zz
 q only:       22.154      17.124     -14.590     -16.607      -9.117      -7.564
  q+dip:       29.041      27.703     -17.766     -11.071      -9.034     -11.275
   full:       28.427      27.489     -17.768     -12.116     -10.344     -10.658


           -------------------------------------------------
          | TOTAL ENERGY             -122.556368221739 Eh   |
          | GRADIENT NORM               0.324646041370 Eh/α |
          | HOMO-LUMO GAP               3.586972008491 eV   |
           -------------------------------------------------

------------------------------------------------------------------------
 * finished run on 2026/05/23 at 12:40:19.136     
------------------------------------------------------------------------
 total:
 * wall-time:     0 d,  0 h,  0 min, 11.255 sec
 *  cpu-time:     0 d,  0 h,  0 min, 17.040 sec
 * ratio c/w:     1.514 speedup
 SCF:
 * wall-time:     0 d,  0 h,  0 min, 10.665 sec
 *  cpu-time:     0 d,  0 h,  0 min, 16.296 sec
 * ratio c/w:     1.528 speedup

normal termination of xtb
