      -----------------------------------------------------------      
     |                   =====================                   |     
     |                           x T B                           |     
     |                   =====================                   |     
     |                         S. Grimme                         |     
     |          Mulliken Center for Theoretical Chemistry        |     
     |                    University of Bonn                     |     
      -----------------------------------------------------------      

   * xtb version 6.7.1 (26dd68d) compiled by 'froitzheim@fs7' on 2026-05-14

   xtb is free software: you can redistribute it and/or modify it under
   the terms of the GNU Lesser General Public License as published by
   the Free Software Foundation, either version 3 of the License, or
   (at your option) any later version.
   
   xtb is distributed in the hope that it will be useful,
   but WITHOUT ANY WARRANTY; without even the implied warranty of
   MERCHANTABILITY or FITNESS FOR A PARTICULAR PURPOSE.  See the
   GNU Lesser General Public License for more details.
   
   Cite this work as:
   * C. Bannwarth, E. Caldeweyher, S. Ehlert, A. Hansen, P. Pracht,
     J. Seibert, S. Spicher, S. Grimme, WIREs Comput. Mol. Sci., 2020, 11,
     e01493. DOI: 10.1002/wcms.1493
   
   for g-xTB:
   * T. Froitzheim, M. Müller, A. Hansen, S. Grimme, ChemRxiv, 2025, preprint.
     DOI: 10.26434/chemrxiv-2025-bjxv
   for GFN2-xTB:
   * C. Bannwarth, S. Ehlert and S. Grimme., J. Chem. Theory Comput., 2019,
     15, 1652-1671. DOI: 10.1021/acs.jctc.8b01176
   for GFN1-xTB:
   * S. Grimme, C. Bannwarth, P. Shushkov, J. Chem. Theory Comput., 2017,
     13, 1989-2009. DOI: 10.1021/acs.jctc.7b00118
   for GFN0-xTB:
   * P. Pracht, E. Caldeweyher, S. Ehlert, S. Grimme, ChemRxiv, 2019, preprint.
     DOI: 10.26434/chemrxiv.8326202.v1
   for GFN-FF:
   * S. Spicher and S. Grimme, Angew. Chem. Int. Ed., 2020, 59, 15665-15673.
     DOI: 10.1002/anie.202004239
   
   for ALPB and GBSA implicit solvation:
   * S. Ehlert, M. Stahn, S. Spicher, S. Grimme, J. Chem. Theory Comput.,
     2021, 17, 4250-4261. DOI: 10.1021/acs.jctc.1c00471
   
   for ddCOSMO and CPCM-X implicit solvation:
   * M. Stahn, S. Ehlert, S. Grimme, J. Phys. Chem. A,
     2023, XX, XXXX-XXXX. DOI: 10.1021/acs.jpca.3c04382
   
   for DFT-D4:
   * E. Caldeweyher, C. Bannwarth and S. Grimme, J. Chem. Phys., 2017,
     147, 034112. DOI: 10.1063/1.4993215
   * E. Caldeweyher, S. Ehlert, A. Hansen, H. Neugebauer, S. Spicher,
     C. Bannwarth and S. Grimme, J. Chem. Phys., 2019, 150, 154122.
     DOI: 10.1063/1.5090222
   * E. Caldeweyher, J.-M. Mewes, S. Ehlert and S. Grimme, Phys. Chem. Chem. Phys.
     2020, 22, 8499-8512. DOI: 10.1039/D0CP00502A
   
   for sTDA-xTB:
   * S. Grimme and C. Bannwarth, J. Chem. Phys., 2016, 145, 054103.
     DOI: 10.1063/1.4959605
   
   in the mass-spec context:
   * V. Asgeirsson, C. Bauer and S. Grimme, Chem. Sci., 2017, 8, 4879.
     DOI: 10.1039/c7sc00601b
   * J. Koopman and S. Grimme, ACS Omega 2019, 4, 12, 15120-15133.
     DOI: 10.1021/acsomega.9b02011
   
   for metadynamics refer to:
   * S. Grimme, J. Chem. Theory Comput., 2019, 155, 2847-2862
     DOI: 10.1021/acs.jctc.9b00143
   
   for SPH calculations refer to:
   * S. Spicher and S. Grimme, J. Chem. Theory Comput., 2021, 17, 1701-1714
     DOI: 10.1021/acs.jctc.0c01306
   
   for ONIOM refer to:
   * C. Plett, A. Katbashev, S. Ehlert, S. Grimme, M. Bursch,
     Phys. Chem. Chem. Phys., 2023, 25, 17860-17868. DOI: 10.1039/D3CP02178E
   
   for DIPRO refer to:
   * J. Kohn, N. Gildemeister, S. Grimme, D. Fazzi, A. Hansen,
     J. Chem. Phys. 159, 144106 (2023). DOI: 10.1063/5.0167484
   
   for PTB refer to:
   * S. Grimme, M. Mueller, A. Hansen, J. Chem. Phys., 2023, 158, 124111.
     DOI: 10.1063/5.0137838
   
   with help from (in alphabetical order)
   P. Atkinson, C. Bannwarth, F. Bohle, G. Brandenburg, E. Caldeweyher,
   M. Checinski, S. Dohm, S. Ehlert, S. Ehrlich, M. Friede, T. Froitzheim,
   I. Gerasimov, C. Hölzer, A. Katbashev, J. Kohn, J. Koopman, C. Lavigne,
   S. Lehtola, F. März, M. Müller, F. Musil, H. Neugebauer, J. Pisarek,
   C. Plett, P. Pracht, F. Pultar, J. Seibert, P. Shushkov, S. Spicher,
   M. Stahn, M. Steiner, T. Strunk, J. Stückrath, T. Rose, and J. Unsleber
   
 * started run on 2026/05/23 at 13:00:52.463     
   ID    Z sym.   atoms
    1    7 N      1, 5, 10, 18, 28, 30, 37-39, 41, 47, 48, 56
    2    6 C      2, 3, 6-8, 11-14, 16, 17, 19-25, 27, 29, 31-34, 36, 40,
                  42-45, 49, 51-55
    3    8 O      4, 9, 15, 26, 35, 46, 50
    4    1 H      57-115

           -------------------------------------------------
          |                Calculation Setup                |
           -------------------------------------------------

          program call               : /home/xchen/software/xtb-6.7.1-gxtb/bin/xtb /home/xchen/Test/benchmark/md_sampled/03_6_0978_0/snap_0197.xyz --charge 0 --gxtb --norestart
          coordinate file            : /home/xchen/Test/benchmark/md_sampled/03_6_0978_0/snap_0197.xyz
          omp threads                :                    48

core increment energy         -2.3949795228626E+03 Eh
dispersion energy              2.4690935187995E-02 Eh
molecular charge               0.0000000000000E+00 e
number of electrons            3.0999999999720E+02 e
number of unpaired electrons   0.0000000000000E+00 e
wavefunction                   restricted
integral cutoff                2.6907767250513E+01 bohr
energy convergence             1.0000000000000E-06 Eh
density convergence            2.0000000000000E-05 e

------------------------------------------------------------
  cycle        total energy    energy error   density error
------------------------------------------------------------
      1     -2644.438717462  -2.4948389E+02   0.0000000E+00
      2     -2644.844874244  -4.0615678E-01   1.8718363E-02
      3     -2645.104151846  -2.5927760E-01   1.4826353E-02
      4     -2645.660810041  -5.5665820E-01   1.1798757E-02
      5     -2645.670900580  -1.0090539E-02   9.1810319E-04
      6     -2645.671739403  -8.3882286E-04   1.8428349E-04
      7     -2645.671834298  -9.4894853E-05   6.4688672E-05
      8     -2645.671839341  -5.0433186E-06   1.6711394E-05
      9     -2645.671840159  -8.1827503E-07   3.5694285E-06
------------------------------------------------------------

electronic energy             -2.5071700823182E+02 Eh
total energy                  -2.6456718401592E+03 Eh

Post processing:
 | Mayer-Wiberg bond orders
 | Molecular Multipole Moments

 total:                                  15.649 sec
 - increment                              0.000 sec (  0%)
 - repulsion                              0.007 sec (  0%)
 - dispersion                             0.208 sec (  1%)
 - coulomb                                0.121 sec (  0%)
 - exchange                               0.003 sec (  0%)
 - hamiltonian                            8.475 sec ( 54%)
 - acp                                    0.121 sec (  0%)
 - spin polarization                      0.000 sec (  0%)
 - post processing                        0.084 sec (  0%)
 - scc                                    5.909 sec ( 37%)
 - coulomb gradient                       0.066 sec (  0%)
 - dispersion gradient                    0.020 sec (  0%)
 - exchange gradient                      0.104 sec (  0%)
 - repulsion gradient                     0.006 sec (  0%)
 - acp gradient                           0.210 sec (  1%)
 - hamiltonian gradient                   0.383 sec (  2%)
 - gradient                               0.789 sec (  5%)

         :::::::::::::::::::::::::::::::::::::::::::::::::::::
         ::                     SUMMARY                     ::
         :::::::::::::::::::::::::::::::::::::::::::::::::::::
         :: total energy           -2645.671840159232 Eh    ::
         :: gradient norm              0.420133032829 Eh/a0 ::
         :: HOMO-LUMO gap              8.875723739080 eV    ::
         ::.................................................::
         :: add. restraining           0.000000000000 Eh    ::
         :: total charge               0.000000000000 e     ::
         :::::::::::::::::::::::::::::::::::::::::::::::::::::

           -------------------------------------------------
          |                Property Printout                |
           -------------------------------------------------

    * Orbital Energies and Occupations
------------------------------------------------------------------
      #    Occupation            Energy/Eh            Energy/eV
------------------------------------------------------------------
      1        2.0000           -1.3633682             -37.0991
    ...           ...                  ...                  ...
    143        2.0000           -0.3744671             -10.1898
    144        2.0000           -0.3721876             -10.1277
    145        2.0000           -0.3703837             -10.0787
    146        2.0000           -0.3700349             -10.0692
    147        2.0000           -0.3676620             -10.0046
    148        2.0000           -0.3662272              -9.9655
    149        2.0000           -0.3604109              -9.8073
    150        2.0000           -0.3582081              -9.7473
    151        2.0000           -0.3531262              -9.6091
    152        2.0000           -0.3514172              -9.5626
    153        2.0000           -0.3495477              -9.5117
    154        2.0000           -0.3493735              -9.5069
    155        2.0000           -0.3383251              -9.2063 (HOMO)
    156                         -0.0121483              -0.3306 (LUMO)
    157                         -0.0050747              -0.1381
    158                         -0.0031854              -0.0867
    159                          0.0015148               0.0412
    160                          0.0060864               0.1656
    161                          0.0178387               0.4854
    162                          0.0267731               0.7285
    163                          0.0340935               0.9277
    164                          0.0784779               2.1355
    165                          0.1008709               2.7448
    166                          0.1019880               2.7752
    ...                                ...                  ...
    283                          0.8715020              23.7148
------------------------------------------------------------------
               HL-Gap            0.3261768 Eh            8.8757 eV
------------------------------------------------------------------

Atomic charges and shell populations (in atomic units):
------------------------------------------------------
     #    Z                q          p(s)       p(p)
------------------------------------------------------
     1    7 N      -0.368794      1.359026   4.009769
     2    6 C      -0.000497      1.109767   2.890730
     3    6 C       0.426427      1.103269   2.470304
     4    8 O      -0.520075      1.850636   4.669438
     5    7 N      -0.343333      1.386919   3.956413
     6    6 C      -0.014775      1.113107   2.901668
     7    6 C       0.414041      1.116502   2.469458
     8    6 C       0.007008      1.149704   2.843288
     9    8 O      -0.499831      1.855822   4.644009
    10    7 N      -0.347022      1.389308   3.957714
    11    6 C      -0.181030      1.150149   3.030881
    12    6 C       0.419265      1.106121   2.474614
    13    6 C      -0.048663      1.137422   2.911241
    14    6 C      -0.033251      1.123200   2.910051
    15    8 O      -0.514563      1.853878   4.660686
    16    6 C      -0.110233      1.158638   2.951595
    17    6 C      -0.114959      1.148561   2.966398
    18    7 N      -0.383288      1.373534   4.009754
    19    6 C      -0.161306      1.151921   3.009385
    20    6 C      -0.107597      1.147243   2.960354
    21    6 C      -0.080459      1.144556   2.935903
    22    6 C       0.417136      1.103648   2.479216
    23    6 C      -0.177002      1.159057   3.017946
    24    6 C      -0.093250      1.147083   2.946167
    25    6 C       0.004829      1.126849   2.868322
    26    8 O      -0.517845      1.857642   4.660204
    27    6 C      -0.093135      1.137493   2.955642
    28    7 N      -0.347968      1.409463   3.938505
    29    6 C      -0.165305      1.160143   3.005162
    30    7 N      -0.371568      1.366233   4.005335
    31    6 C       0.434685      1.104704   2.460611
    32    6 C      -0.177956      1.169000   3.008957
    33    6 C       0.288279      1.082776   2.628945
    34    6 C      -0.008022      1.138022   2.870000
    35    8 O      -0.491843      1.854155   4.637689
    36    6 C      -0.061827      1.148149   2.913678
    37    7 N      -0.544283      1.595354   3.948928
    38    7 N      -0.463937      1.416418   4.047519
    39    7 N      -0.220078      1.335372   3.884706
    40    6 C      -0.156493      1.164016   2.992477
    41    7 N      -0.387850      1.375183   4.012667
    42    6 C      -0.082728      1.127911   2.954817
    43    6 C       0.422914      1.094368   2.482718
    44    6 C      -0.173131      1.154555   3.018577
    45    6 C       0.297701      1.071433   2.630865
    46    8 O      -0.584070      1.859025   4.725045
    47    7 N      -0.554861      1.509409   4.045452
    48    7 N      -0.471566      1.387218   4.084347
    49    6 C       0.116474      1.123729   2.759798
    50    8 O      -0.555761      1.819941   4.735820
    51    6 C      -0.262121      1.156321   3.105801
    52    6 C      -0.165743      1.165594   3.000149
    53    6 C      -0.187139      1.141039   3.046100
    54    6 C      -0.179623      1.148511   3.031111
    55    6 C      -0.109293      1.149819   2.959473
    56    7 N      -0.485870      1.510289   3.975582
    57    1 H       0.272601      0.727399
    58    1 H       0.128481      0.871519
    59    1 H       0.268874      0.731126
    60    1 H       0.130093      0.869907
    61    1 H       0.134147      0.865853
    62    1 H       0.273246      0.726754
    63    1 H       0.087064      0.912936
    64    1 H       0.148233      0.851767
    65    1 H       0.151057      0.848943
    66    1 H       0.096686      0.903314
    67    1 H       0.114378      0.885622
    68    1 H       0.269723      0.730277
    69    1 H       0.092516      0.907484
    70    1 H       0.093196      0.906804
    71    1 H       0.112239      0.887761
    72    1 H       0.115470      0.884530
    73    1 H       0.121241      0.878759
    74    1 H       0.099598      0.900402
    75    1 H       0.099206      0.900794
    76    1 H       0.127519      0.872481
    77    1 H       0.102518      0.897482
    78    1 H       0.118129      0.881871
    79    1 H       0.249905      0.750095
    80    1 H       0.055804      0.944196
    81    1 H       0.139094      0.860906
    82    1 H       0.260552      0.739448
    83    1 H       0.118159      0.881841
    84    1 H       0.092076      0.907924
    85    1 H       0.101598      0.898402
    86    1 H       0.091842      0.908158
    87    1 H       0.103536      0.896464
    88    1 H       0.206469      0.793531
    89    1 H       0.238417      0.761583
    90    1 H       0.247648      0.752352
    91    1 H       0.103667      0.896333
    92    1 H       0.109334      0.890666
    93    1 H       0.232529      0.767471
    94    1 H       0.145013      0.854987
    95    1 H       0.115668      0.884332
    96    1 H       0.104994      0.895006
    97    1 H       0.099797      0.900203
    98    1 H       0.235460      0.764540
    99    1 H       0.245103      0.754897
   100    1 H       0.267309      0.732691
   101    1 H       0.101253      0.898747
   102    1 H       0.342269      0.657731
   103    1 H       0.123812      0.876188
   104    1 H       0.094809      0.905191
   105    1 H       0.087509      0.912491
   106    1 H       0.105324      0.894676
   107    1 H       0.104542      0.895458
   108    1 H       0.128986      0.871014
   109    1 H       0.088971      0.911029
   110    1 H       0.093477      0.906523
   111    1 H       0.102709      0.897291
   112    1 H       0.086276      0.913724
   113    1 H       0.075946      0.924054
   114    1 H       0.207789      0.792211
   115    1 H       0.207327      0.792673
------------------------------------------------------


Wiberg/Mayer (AO) data.
largest (>0.10) Wiberg bond orders for each atom

 ---------------------------------------------------------------------------
     #   Z sym  total        # sym  WBO       # sym  WBO       # sym  WBO
 ---------------------------------------------------------------------------
     1   7 N    3.272 --     7 C    1.165     2 C    0.970    57 O    0.867
                             9 C    0.160
     2   6 C    3.938 --     1 N    0.970    49 C    0.963     3 C    0.944
                            58 O    0.928
     3   6 C    3.870 --     4 C    1.672     5 N    1.167     2 C    0.944
     4   8 C    1.988 --     3 C    1.672     5 N    0.161
     5   7 N    3.296 --     3 C    1.167     6 C    0.962    59 O    0.888
                             4 C    0.161
     6   6 C    3.927 --    52 C    0.976     5 N    0.962    43 C    0.945
                            60 O    0.927
     7   6 C    3.860 --     9 C    1.717     1 N    1.165     8 C    0.917
     8   6 C    3.929 --    11 C    0.985    10 N    0.952    61 O    0.932
                             7 C    0.917
     9   8 C    2.000 --     7 C    1.717     1 N    0.160
    10   7 N    3.284 --    12 C    1.197     8 C    0.952    62 O    0.877
                            15 C    0.156
    11   6 C    3.963 --    13 C    1.005     8 C    0.985    63 O    0.939
                            64 O    0.933
    12   6 C    3.865 --    15 C    1.696    10 N    1.197    14 C    0.907
    13   6 C    3.975 --    17 C    1.434    16 C    1.376    11 C    1.005
                            24 C    0.114
    14   6 C    3.927 --    19 C    0.983    18 N    0.969    65 O    0.918
                            12 C    0.907
    15   8 C    1.978 --    12 C    1.696    10 N    0.156
    16   6 C    3.964 --    20 C    1.451    13 C    1.376    66 O    0.954
                            21 C    0.130
    17   6 C    3.964 --    13 C    1.434    21 C    1.418    67 O    0.941
                            20 C    0.111
    18   7 N    3.280 --    22 C    1.171    14 C    0.969    68 O    0.885
                            26 C    0.154
    19   6 C    3.962 --    23 C    1.013    14 C    0.983    70 O    0.958
                            69 O    0.953
    20   6 C    3.970 --    16 C    1.451    24 C    1.432    71 O    0.953
                            17 C    0.111
    21   6 C    3.966 --    24 C    1.442    17 C    1.418    72 O    0.950
                            16 C    0.130
    22   6 C    3.869 --    26 C    1.678    18 N    1.171    25 C    0.952
    23   6 C    3.956 --    19 C    1.013    27 C    0.980    74 O    0.959
                            73 O    0.951
    24   6 C    3.968 --    21 C    1.442    20 C    1.432    75 O    0.953
                            13 C    0.114
    25   6 C    3.928 --    29 C    0.971    22 C    0.952    28 N    0.945
                            76 O    0.930
    26   8 C    1.951 --    22 C    1.678    18 N    0.154
    27   6 C    3.934 --    30 N    0.989    23 C    0.980    78 O    0.954
                            77 O    0.949
    28   7 N    3.238 --    31 C    1.140    25 C    0.945    79 O    0.896
                            35 C    0.146
    29   6 C    3.956 --    32 C    1.028    25 C    0.971    80 O    0.948
                            81 O    0.942
    30   7 N    3.208 --    33 C    1.121    27 C    0.989    82 O    0.895
                            37 N    0.115
    31   6 C    3.866 --    35 C    1.724    28 N    1.140    34 C    0.922
    32   6 C    3.956 --    29 C    1.028    36 C    0.971    84 O    0.961
                            83 O    0.953
    33   6 C    3.938 --    37 N    1.682    30 N    1.121    38 N    1.103
    34   6 C    3.932 --    40 C    0.975    39 N    0.951    85 O    0.935
                            31 C    0.922
    35   8 C    1.993 --    31 C    1.724    28 N    0.146
    36   6 C    3.930 --    41 N    0.997    32 C    0.971    86 O    0.956
                            87 O    0.950
    37   7 N    2.865 --    33 C    1.682    88 O    0.913    30 N    0.115
    38   7 N    3.093 --    33 C    1.103    90 O    0.918    89 O    0.917
    39   7 N    3.433 --    43 C    1.262    42 C    0.960    34 C    0.951
                            46 C    0.158
    40   6 C    3.954 --    44 C    1.007    34 C    0.975    92 O    0.961
                            91 O    0.956
    41   7 N    3.190 --    45 C    1.082    36 C    0.997    93 O    0.904
                            47 N    0.113
    42   6 C    3.905 --    44 C    0.992    39 N    0.960    95 O    0.949
                            94 O    0.927
    43   6 C    3.877 --    46 C    1.577    39 N    1.262     6 C    0.945
    44   6 C    3.962 --    40 C    1.007    42 C    0.992    97 O    0.962
                            96 O    0.960
    45   6 C    3.942 --    47 N    1.716    48 N    1.114    41 N    1.082
    46   8 C    1.879 --    43 C    1.577    39 N    0.158
    47   7 N    2.900 --    45 C    1.716    98 O    0.909    41 N    0.113
                            48 N    0.113
    48   7 N    3.112 --    45 C    1.114    99 O    0.912   100 O    0.908
                            47 N    0.113
    49   6 C    3.904 --    51 C    1.019     2 C    0.963   101 O    0.940
                            50 C    0.929
    50   8 C    1.872 --    49 C    0.929   102 O    0.863
    51   6 C    3.954 --    49 C    1.019   105 O    0.969   103 O    0.964
                           104 O    0.962
    52   6 C    3.954 --    53 C    0.992     6 C    0.976   106 O    0.961
                           107 O    0.960
    53   6 C    3.964 --    54 C    1.025    52 C    0.992   109 O    0.959
                           108 O    0.953
    54   6 C    3.967 --    53 C    1.025    55 C    0.979   111 O    0.958
                           110 O    0.955
    55   6 C    3.952 --    56 N    1.017    54 C    0.979   113 O    0.967
                           112 O    0.966
    56   7 N    2.952 --    55 C    1.017   114 O    0.946   115 O    0.942
    57   1 O    0.926 --     1 N    0.867
    58   1 O    0.983 --     2 C    0.928
    59   1 O    0.928 --     5 N    0.888
    60   1 O    0.983 --     6 C    0.927
    61   1 O    0.982 --     8 C    0.932
    62   1 O    0.925 --    10 N    0.877
    63   1 O    0.992 --    11 C    0.939
    64   1 O    0.978 --    11 C    0.933
    65   1 O    0.977 --    14 C    0.918
    66   1 O    0.991 --    16 C    0.954
    67   1 O    0.987 --    17 C    0.941
    68   1 O    0.927 --    18 N    0.885
    69   1 O    0.991 --    19 C    0.953
    70   1 O    0.991 --    19 C    0.958
    71   1 O    0.987 --    20 C    0.953
    72   1 O    0.987 --    21 C    0.950
    73   1 O    0.985 --    23 C    0.951
    74   1 O    0.990 --    23 C    0.959
    75   1 O    0.990 --    24 C    0.953
    76   1 O    0.984 --    25 C    0.930
    77   1 O    0.989 --    27 C    0.949
    78   1 O    0.986 --    27 C    0.954
    79   1 O    0.938 --    28 N    0.896
    80   1 O    0.997 --    29 C    0.948
    81   1 O    0.981 --    29 C    0.942
    82   1 O    0.932 --    30 N    0.895
    83   1 O    0.986 --    32 C    0.953
    84   1 O    0.992 --    32 C    0.961
    85   1 O    0.990 --    34 C    0.935
    86   1 O    0.992 --    36 C    0.956
    87   1 O    0.989 --    36 C    0.950
    88   1 O    0.957 --    37 N    0.913
    89   1 O    0.943 --    38 N    0.917
    90   1 O    0.939 --    38 N    0.918
    91   1 O    0.989 --    40 C    0.956
    92   1 O    0.988 --    40 C    0.961
    93   1 O    0.946 --    41 N    0.904
    94   1 O    0.979 --    42 C    0.927
    95   1 O    0.987 --    42 C    0.949
    96   1 O    0.989 --    44 C    0.960
    97   1 O    0.990 --    44 C    0.962
    98   1 O    0.945 --    47 N    0.909
    99   1 O    0.940 --    48 N    0.912
   100   1 O    0.929 --    48 N    0.908
   101   1 O    0.990 --    49 C    0.940
   102   1 O    0.883 --    50 C    0.863
   103   1 O    0.985 --    51 C    0.964
   104   1 O    0.991 --    51 C    0.962
   105   1 O    0.992 --    51 C    0.969
   106   1 O    0.989 --    52 C    0.961
   107   1 O    0.989 --    52 C    0.960
   108   1 O    0.983 --    53 C    0.953
   109   1 O    0.992 --    53 C    0.959
   110   1 O    0.991 --    54 C    0.955
   111   1 O    0.989 --    54 C    0.958
   112   1 O    0.993 --    55 C    0.966
   113   1 O    0.994 --    55 C    0.967
   114   1 O    0.957 --    56 N    0.946
   115   1 O    0.957 --    56 N    0.942
 ---------------------------------------------------------------------------

Topologies differ in total number of bonds
Writing topology from bond orders to xtbtopo.mol

Atomic dipole moments (in atomic units):
---------------------------------------------------------
     #    Z                 x            y            z
---------------------------------------------------------
           total     2.647807    -2.214079    -0.042610
---------------------------------------------------------
         |total|     3.451789     8.773572 Debye


           -------------------------------------------------
          | TOTAL ENERGY            -2645.671840159232 Eh   |
          | GRADIENT NORM               0.420133032829 Eh/α |
           -------------------------------------------------

------------------------------------------------------------------------
 * finished run on 2026/05/23 at 13:01:08.596     
------------------------------------------------------------------------
 total:
 * wall-time:     0 d,  0 h,  0 min, 16.131 sec
 *  cpu-time:     0 d,  0 h,  1 min, 20.476 sec
 * ratio c/w:     4.989 speedup
 SCF:
 * wall-time:     0 d,  0 h,  0 min, 15.913 sec
 *  cpu-time:     0 d,  0 h,  1 min, 19.997 sec
 * ratio c/w:     5.027 speedup

normal termination of xtb
