      -----------------------------------------------------------      
     |                   =====================                   |     
     |                           x T B                           |     
     |                   =====================                   |     
     |                         S. Grimme                         |     
     |          Mulliken Center for Theoretical Chemistry        |     
     |                    University of Bonn                     |     
      -----------------------------------------------------------      

   * xtb version 6.7.1 (edcfbbe) compiled by 'albert@albert-system' on 2024-07-22

   xtb is free software: you can redistribute it and/or modify it under
   the terms of the GNU Lesser General Public License as published by
   the Free Software Foundation, either version 3 of the License, or
   (at your option) any later version.
   
   xtb is distributed in the hope that it will be useful,
   but WITHOUT ANY WARRANTY; without even the implied warranty of
   MERCHANTABILITY or FITNESS FOR A PARTICULAR PURPOSE.  See the
   GNU Lesser General Public License for more details.
   
   Cite this work as:
   * C. Bannwarth, E. Caldeweyher, S. Ehlert, A. Hansen, P. Pracht,
     J. Seibert, S. Spicher, S. Grimme, WIREs Comput. Mol. Sci., 2020, 11,
     e01493. DOI: 10.1002/wcms.1493
   
   for GFN2-xTB:
   * C. Bannwarth, S. Ehlert and S. Grimme., J. Chem. Theory Comput., 2019,
     15, 1652-1671. DOI: 10.1021/acs.jctc.8b01176
   for GFN1-xTB:
   * S. Grimme, C. Bannwarth, P. Shushkov, J. Chem. Theory Comput., 2017,
     13, 1989-2009. DOI: 10.1021/acs.jctc.7b00118
   for GFN0-xTB:
   * P. Pracht, E. Caldeweyher, S. Ehlert, S. Grimme, ChemRxiv, 2019, preprint.
     DOI: 10.26434/chemrxiv.8326202.v1
   for GFN-FF:
   * S. Spicher and S. Grimme, Angew. Chem. Int. Ed., 2020, 59, 15665-15673.
     DOI: 10.1002/anie.202004239
   
   for ALPB and GBSA implicit solvation:
   * S. Ehlert, M. Stahn, S. Spicher, S. Grimme, J. Chem. Theory Comput.,
     2021, 17, 4250-4261. DOI: 10.1021/acs.jctc.1c00471
   
   for ddCOSMO and CPCM-X implicit solvation:
   * M. Stahn, S. Ehlert, S. Grimme, J. Phys. Chem. A,
     2023, XX, XXXX-XXXX. DOI: 10.1021/acs.jpca.3c04382
   
   for DFT-D4:
   * E. Caldeweyher, C. Bannwarth and S. Grimme, J. Chem. Phys., 2017,
     147, 034112. DOI: 10.1063/1.4993215
   * E. Caldeweyher, S. Ehlert, A. Hansen, H. Neugebauer, S. Spicher,
     C. Bannwarth and S. Grimme, J. Chem. Phys., 2019, 150, 154122.
     DOI: 10.1063/1.5090222
   * E. Caldeweyher, J.-M. Mewes, S. Ehlert and S. Grimme, Phys. Chem. Chem. Phys.
     2020, 22, 8499-8512. DOI: 10.1039/D0CP00502A
   
   for sTDA-xTB:
   * S. Grimme and C. Bannwarth, J. Chem. Phys., 2016, 145, 054103.
     DOI: 10.1063/1.4959605
   
   in the mass-spec context:
   * V. Asgeirsson, C. Bauer and S. Grimme, Chem. Sci., 2017, 8, 4879.
     DOI: 10.1039/c7sc00601b
   * J. Koopman and S. Grimme, ACS Omega 2019, 4, 12, 15120-15133.
     DOI: 10.1021/acsomega.9b02011
   
   for metadynamics refer to:
   * S. Grimme, J. Chem. Theory Comput., 2019, 155, 2847-2862
     DOI: 10.1021/acs.jctc.9b00143
   
   for SPH calculations refer to:
   * S. Spicher and S. Grimme, J. Chem. Theory Comput., 2021, 17, 1701-1714
     DOI: 10.1021/acs.jctc.0c01306
   
   for ONIOM refer to:
   * C. Plett, A. Katbashev, S. Ehlert, S. Grimme, M. Bursch,
     Phys. Chem. Chem. Phys., 2023, 25, 17860-17868. DOI: 10.1039/D3CP02178E
   
   for DIPRO refer to:
   * J. Kohn, N. Gildemeister, S. Grimme, D. Fazzi, A. Hansen,
     J. Chem. Phys., 2023, just accepted.
   
   for PTB refer to:
   * S. Grimme, M. Mueller, A. Hansen, J. Chem. Phys., 2023, 158, 124111.
     DOI: 10.1063/5.0137838
   
   with help from (in alphabetical order)
   P. Atkinson, C. Bannwarth, F. Bohle, G. Brandenburg, E. Caldeweyher
   M. Checinski, S. Dohm, S. Ehlert, S. Ehrlich, I. Gerasimov, C. Hölzer
   A. Katbashev, J. Kohn, J. Koopman, C. Lavigne, S. Lehtola, F. März, M. Müller,
   F. Musil, H. Neugebauer, J. Pisarek, C. Plett, P. Pracht, F. Pultar,
   J. Seibert, P. Shushkov, S. Spicher, M. Stahn, M. Steiner, T. Strunk,
   J. Stückrath, T. Rose, and J. Unsleber
   
 * started run on 2026/05/23 at 12:54:12.079     
   ID    Z sym.   atoms
    1    7 N      1, 5, 10, 17, 23, 25, 28, 34, 41, 46, 50
    2    6 C      2, 3, 6-8, 11-15, 18-21, 24, 26, 27, 29-32, 35-38, 40,
                  42-45, 48, 49, 51-53
    3    8 O      4, 9, 16, 22, 33, 39, 47
    4    1 H      54-110

           -------------------------------------------------
          |                Calculation Setup                |
           -------------------------------------------------

          program call               : /home/xchen/software/xtb-6.7.1/xtb-dist/bin/xtb /home/xchen/Test/benchmark/md_sampled/07_7_0083_0/snap_0155.xyz --charge 0 --gfn 2 --norestart
          coordinate file            : /home/xchen/Test/benchmark/md_sampled/07_7_0083_0/snap_0155.xyz
          omp threads                :                    48


           -------------------------------------------------
          |                 G F N 2 - x T B                 |
           -------------------------------------------------

        Reference                      10.1021/acs.jctc.8b01176
      * Hamiltonian:
        H0-scaling (s, p, d)           1.850000    2.230000    2.230000
        zeta-weighting                 0.500000
      * Dispersion:
        s8                             2.700000
        a1                             0.520000
        a2                             5.000000
        s9                             5.000000
      * Repulsion:
        kExp                           1.500000    1.000000
        rExp                           1.000000
      * Coulomb:
        alpha                          2.000000
        third order                    shell-resolved
        anisotropic                    true
        a3                             3.000000
        a5                             4.000000
        cn-shift                       1.200000
        cn-exp                         4.000000
        max-rad                        5.000000


          ...................................................
          :                      SETUP                      :
          :.................................................:
          :  # basis functions                 269          :
          :  # atomic orbitals                 269          :
          :  # shells                          163          :
          :  # electrons                       294          :
          :  max. iterations                   250          :
          :  Hamiltonian                  GFN2-xTB          :
          :  restarted?                      false          :
          :  GBSA solvation                  false          :
          :  PC potential                    false          :
          :  electronic temp.          300.0000000     K    :
          :  accuracy                    1.0000000          :
          :  -> integral cutoff          0.2500000E+02      :
          :  -> integral neglect         0.1000000E-07      :
          :  -> SCF convergence          0.1000000E-05 Eh   :
          :  -> wf. convergence          0.1000000E-03 e    :
          :  Broyden damping             0.4000000          :
          :  net charge                          0          :
          :  unpaired electrons                  0          :
          ...................................................

 iter      E             dE          RMSdq      gap      omega  full diag
   1   -165.9818939 -0.165982E+03  0.380E+00    3.23       0.0  T
   2   -166.3921159 -0.410222E+00  0.213E+00    3.13       1.0  T
   3   -166.4153070 -0.231910E-01  0.118E+00    3.15       1.0  T
   4   -166.4139764  0.133063E-02  0.360E-01    2.79       1.0  T
   5   -166.4256578 -0.116814E-01  0.119E-01    2.84       1.0  T
   6   -166.4262587 -0.600867E-03  0.618E-02    2.84       1.0  T
   7   -166.4264090 -0.150357E-03  0.261E-02    2.83       1.0  T
   8   -166.4264174 -0.834224E-05  0.767E-03    2.84       1.2  T
   9   -166.4264194 -0.200035E-05  0.359E-03    2.84       2.7  T
  10   -166.4264197 -0.301777E-06  0.144E-03    2.84       6.6  T
  11   -166.4264197 -0.499859E-07  0.628E-04    2.84      15.2  T
  12   -166.4264197 -0.151431E-07  0.192E-04    2.84      49.6  T

   *** convergence criteria satisfied after 12 iterations ***

         #    Occupation            Energy/Eh            Energy/eV
      -------------------------------------------------------------
         1        2.0000           -0.7112280             -19.3535
       ...           ...                  ...                  ...
       141        2.0000           -0.3772641             -10.2659
       142        2.0000           -0.3726744             -10.1410
       143        2.0000           -0.3693760             -10.0512
       144        2.0000           -0.3687610             -10.0345
       145        2.0000           -0.3675035             -10.0003
       146        2.0000           -0.3648100              -9.9270
       147        2.0000           -0.3405868              -9.2678 (HOMO)
       148                         -0.2363979              -6.4327 (LUMO)
       149                         -0.2336402              -6.3577
       150                         -0.2316474              -6.3034
       151                         -0.2287705              -6.2252
       152                         -0.2230561              -6.0697
       ...                                ...                  ...
       269                          0.6297409              17.1361
      -------------------------------------------------------------
                  HL-Gap            0.1041889 Eh            2.8351 eV
             Fermi-level           -0.2884923 Eh           -7.8503 eV

 SCC (total)                   0 d,  0 h,  0 min, 10.247 sec
 SCC setup                      ...        0 min,  0.011 sec (  0.111%)
 Dispersion                     ...        0 min,  0.054 sec (  0.530%)
 classical contributions        ...        0 min,  0.003 sec (  0.028%)
 integral evaluation            ...        0 min,  0.351 sec (  3.428%)
 iterations                     ...        0 min,  9.301 sec ( 90.764%)
 molecular gradient             ...        0 min,  0.511 sec (  4.984%)
 printout                       ...        0 min,  0.016 sec (  0.154%)

         :::::::::::::::::::::::::::::::::::::::::::::::::::::
         ::                     SUMMARY                     ::
         :::::::::::::::::::::::::::::::::::::::::::::::::::::
         :: total energy            -164.549461792883 Eh    ::
         :: gradient norm              0.366900102672 Eh/a0 ::
         :: HOMO-LUMO gap              2.835123365905 eV    ::
         ::.................................................::
         :: SCC energy              -166.420572831792 Eh    ::
         :: -> isotropic ES            0.297947735235 Eh    ::
         :: -> anisotropic ES          0.024431473888 Eh    ::
         :: -> anisotropic XC          0.072458480190 Eh    ::
         :: -> dispersion             -0.133196546327 Eh    ::
         :: repulsion energy           1.871111038909 Eh    ::
         :: add. restraining           0.000000000000 Eh    ::
         :: total charge              -0.000000000000 e     ::
         :::::::::::::::::::::::::::::::::::::::::::::::::::::

           -------------------------------------------------
          |                Property Printout                |
           -------------------------------------------------

    * Orbital Energies and Occupations

         #    Occupation            Energy/Eh            Energy/eV
      -------------------------------------------------------------
         1        2.0000           -0.7112280             -19.3535
       ...           ...                  ...                  ...
       135        2.0000           -0.4035160             -10.9802
       136        2.0000           -0.3991903             -10.8625
       137        2.0000           -0.3973847             -10.8134
       138        2.0000           -0.3919170             -10.6646
       139        2.0000           -0.3880380             -10.5591
       140        2.0000           -0.3803030             -10.3486
       141        2.0000           -0.3772641             -10.2659
       142        2.0000           -0.3726744             -10.1410
       143        2.0000           -0.3693760             -10.0512
       144        2.0000           -0.3687610             -10.0345
       145        2.0000           -0.3675035             -10.0003
       146        2.0000           -0.3648100              -9.9270
       147        2.0000           -0.3405868              -9.2678 (HOMO)
       148                         -0.2363979              -6.4327 (LUMO)
       149                         -0.2336402              -6.3577
       150                         -0.2316474              -6.3034
       151                         -0.2287705              -6.2252
       152                         -0.2230561              -6.0697
       153                         -0.2123431              -5.7781
       154                         -0.2087022              -5.6791
       155                         -0.2034886              -5.5372
       156                         -0.1674696              -4.5571
       157                         -0.0791240              -2.1531
       158                         -0.0616225              -1.6768
       ...                                ...                  ...
       269                          0.6297409              17.1361
      -------------------------------------------------------------
                  HL-Gap            0.1041889 Eh            2.8351 eV
             Fermi-level           -0.2884923 Eh           -7.8503 eV

     #   Z          covCN         q      C6AA      α(0)
     1   7 N        2.680    -0.193    25.181     7.453
     2   6 C        3.728    -0.016    20.953     6.535
     3   6 C        2.749     0.278    22.293     7.731
     4   8 O        0.859    -0.399    21.652     6.239
     5   7 N        2.677    -0.182    24.952     7.419
     6   6 C        3.797     0.015    20.320     6.419
     7   6 C        2.731     0.257    22.681     7.797
     8   6 C        3.798     0.021    20.219     6.403
     9   8 O        0.856    -0.409    21.852     6.267
    10   7 N        2.746    -0.142    24.065     7.286
    11   6 C        3.806    -0.047    21.404     6.586
    12   6 C        3.750     0.002    20.612     6.475
    13   6 C        2.752     0.252    22.770     7.814
    14   6 C        3.804    -0.052    21.512     6.603
    15   6 C        3.805     0.037    19.945     6.358
    16   8 O        0.859    -0.396    21.596     6.231
    17   7 N        2.697    -0.171    24.701     7.382
    18   6 C        3.808    -0.069    21.807     6.648
    19   6 C        2.754     0.274    22.368     7.745
    20   6 C        3.146     0.056    26.483     8.419
    21   6 C        3.819     0.029    20.078     6.377
    22   8 O        0.861    -0.446    22.625     6.377
    23   7 N        1.878    -0.265    27.727     7.806
    24   6 C        2.903    -0.047    29.164     8.855
    25   7 N        2.729    -0.109    23.385     7.182
    26   6 C        3.861    -0.063    21.659     6.619
    27   6 C        3.024     0.093    25.901     8.348
    28   7 N        2.791    -0.103    23.254     7.162
    29   6 C        3.831    -0.000    20.563     6.452
    30   6 C        2.757     0.239    23.013     7.856
    31   6 C        3.793    -0.066    21.775     6.645
    32   6 C        3.773     0.026    20.160     6.398
    33   8 O        0.856    -0.445    22.591     6.373
    34   7 N        2.701    -0.179    24.869     7.407
    35   6 C        3.802    -0.072    21.869     6.658
    36   6 C        2.762     0.270    22.438     7.757
    37   6 C        3.785    -0.060    21.674     6.631
    38   6 C        3.762     0.041    19.926     6.363
    39   8 O        0.856    -0.433    22.344     6.338
    40   6 C        3.793    -0.068    21.818     6.652
    41   7 N        2.692    -0.203    25.421     7.488
    42   6 C        3.818    -0.078    21.972     6.671
    43   6 C        3.720     0.018    20.383     6.449
    44   6 C        2.741     0.275    22.354     7.741
    45   6 C        3.794    -0.075    21.937     6.670
    46   7 N        2.629    -0.330    28.485     7.927
    47   8 O        0.858    -0.426    22.207     6.318
    48   6 C        3.813    -0.072    21.867     6.656
    49   6 C        3.713     0.015    20.453     6.462
    50   7 N        2.632    -0.342    28.800     7.970
    51   6 C        3.826    -0.008    20.695     6.473
    52   6 C        3.750    -0.122    22.906     6.826
    53   6 C        3.768    -0.121    22.864     6.815
    54   1 H        0.861     0.200     1.103     1.645
    55   1 H        0.920     0.093     1.849     2.127
    56   1 H        0.923     0.047     2.353     2.399
    57   1 H        0.857     0.160     1.337     1.812
    58   1 H        0.927     0.055     2.256     2.349
    59   1 H        0.924     0.066     2.126     2.280
    60   1 H        0.918     0.045     2.381     2.413
    61   1 H        0.914     0.057     2.241     2.341
    62   1 H        0.926     0.055     2.262     2.352
    63   1 H        0.923     0.046     2.368     2.407
    64   1 H        0.912     0.029     2.602     2.523
    65   1 H        0.924     0.043     2.412     2.429
    66   1 H        0.927     0.076     2.019     2.222
    67   1 H        0.856     0.206     1.077     1.626
    68   1 H        0.924     0.080     1.978     2.200
    69   1 H        0.926     0.089     1.889     2.149
    70   1 H        0.916     0.044     2.403     2.425
    71   1 H        0.921     0.028     2.619     2.531
    72   1 H        0.920     0.065     2.142     2.289
    73   1 H        0.926     0.053     2.277     2.360
    74   1 H        0.924     0.036     2.497     2.471
    75   1 H        0.861     0.159     1.343     1.815
    76   1 H        0.914     0.053     2.286     2.365
    77   1 H        0.926     0.072     2.063     2.246
    78   1 H        0.914     0.043     2.414     2.430
    79   1 H        0.928     0.064     2.155     2.296
    80   1 H        0.915     0.068     2.110     2.272
    81   1 H        0.860     0.203     1.089     1.635
    82   1 H        0.923     0.046     2.371     2.408
    83   1 H        0.926     0.065     2.143     2.289
    84   1 H        0.924     0.046     2.375     2.410
    85   1 H        0.910     0.021     2.728     2.584
    86   1 H        0.890     0.058     2.231     2.338
    87   1 H        0.918     0.026     2.644     2.543
    88   1 H        0.923     0.032     2.558     2.501
    89   1 H        0.861     0.201     1.100     1.643
    90   1 H        0.926     0.055     2.253     2.347
    91   1 H        0.929     0.059     2.208     2.324
    92   1 H        0.911     0.029     2.601     2.523
    93   1 H        0.924     0.044     2.398     2.422
    94   1 H        0.922     0.050     2.324     2.384
    95   1 H        0.929     0.053     2.286     2.364
    96   1 H        0.861     0.136     1.502     1.919
    97   1 H        0.861     0.134     1.515     1.928
    98   1 H        0.925     0.053     2.280     2.361
    99   1 H        0.927     0.036     2.503     2.474
   100   1 H        0.917     0.034     2.536     2.491
   101   1 H        0.910    -0.001     3.086     2.748
   102   1 H        0.856     0.139     1.478     1.905
   103   1 H        0.860     0.137     1.496     1.916
   104   1 H        0.899     0.007     2.946     2.685
   105   1 H        0.918     0.073     2.053     2.241
   106   1 H        0.927     0.047     2.355     2.400
   107   1 H        0.928     0.050     2.318     2.381
   108   1 H        0.929     0.063     2.167     2.302
   109   1 H        0.928     0.041     2.434     2.440
   110   1 H        0.922     0.039     2.458     2.452

 Mol. C6AA /au·bohr⁶  :     112123.888630
 Mol. C8AA /au·bohr⁸  :    2485045.153934
 Mol. α(0) /au        :        500.658655


Wiberg/Mayer (AO) data.
largest (>0.10) Wiberg bond orders for each atom

 ---------------------------------------------------------------------------
     #   Z sym  total        # sym  WBO       # sym  WBO       # sym  WBO
 ---------------------------------------------------------------------------
     1   7 N    3.391 --     7 C    1.228     2 C    0.989    54 H    0.918
                             9 O    0.185
     2   6 C    3.972 --     1 N    0.989     3 C    0.963    56 H    0.956
                            55 H    0.950
     3   6 C    3.952 --     4 O    1.721     5 N    1.207     2 C    0.963
     4   8 O    2.046 --     3 C    1.721     5 N    0.174
     5   7 N    3.380 --     3 C    1.207     6 C    0.973    57 H    0.948
                             4 O    0.174
     6   6 C    3.959 --    51 C    0.973     5 N    0.973    58 H    0.946
                            44 C    0.904
     7   6 C    3.938 --     9 O    1.738     1 N    1.228     8 C    0.883
     8   6 C    3.973 --    10 N    1.010    11 C    0.996    59 H    0.941
                             7 C    0.883
     9   8 O    2.045 --     7 C    1.738     1 N    0.185
    10   7 N    3.421 --    13 C    1.161     8 C    1.010    12 C    0.963
                            16 O    0.184
    11   6 C    3.986 --    14 C    1.006     8 C    0.996    60 H    0.970
                            61 H    0.968
    12   6 C    3.964 --    14 C    1.006    62 H    0.973    63 H    0.967
                            10 N    0.963
    13   6 C    3.940 --    16 O    1.739    10 N    1.161    15 C    0.926
    14   6 C    3.992 --    12 C    1.006    11 C    1.006    65 H    0.980
                            64 H    0.975
    15   6 C    3.971 --    18 C    1.006    17 N    0.971    66 H    0.945
                            13 C    0.926
    16   8 O    2.054 --    13 C    1.739    10 N    0.184
    17   7 N    3.443 --    19 C    1.257    15 C    0.971    67 H    0.907
                            22 O    0.199
    18   6 C    3.986 --    15 C    1.006    20 C    0.973    69 H    0.967
                            68 H    0.948
    19   6 C    3.956 --    22 O    1.661    17 N    1.257    21 C    0.973
    20   6 C    3.960 --    24 C    1.545    23 N    1.315    18 C    0.973
    21   6 C    3.970 --    19 C    0.973    26 C    0.971    25 N    0.963
                            70 H    0.951
    22   8 O    1.981 --    19 C    1.661    17 N    0.199
    23   7 N    3.019 --    27 C    1.499    20 C    1.315    28 N    0.108
    24   6 C    3.895 --    20 C    1.545    28 N    1.144    71 H    0.968
                            27 C    0.141
    25   7 N    3.483 --    30 C    1.251    29 C    0.973    21 C    0.963
                            33 O    0.201
    26   6 C    3.987 --    31 C    1.005    73 H    0.979    72 H    0.973
                            21 C    0.971
    27   6 C    3.959 --    23 N    1.499    28 N    1.312    74 H    0.962
                            24 C    0.141
    28   7 N    3.578 --    27 C    1.312    24 C    1.144    75 H    0.947
                            23 N    0.108
    29   6 C    3.964 --    31 C    1.000    25 N    0.973    77 H    0.969
                            76 H    0.948
    30   6 C    3.941 --    33 O    1.657    25 N    1.251    32 C    0.916
    31   6 C    3.988 --    26 C    1.005    29 C    1.000    78 H    0.976
                            79 H    0.974
    32   6 C    3.961 --    35 C    0.988    34 N    0.979    80 H    0.951
                            30 C    0.916
    33   8 O    2.002 --    30 C    1.657    25 N    0.201
    34   7 N    3.425 --    36 C    1.238    32 C    0.979    81 H    0.921
                            39 O    0.189
    35   6 C    3.989 --    37 C    1.002    32 C    0.988    82 H    0.972
                            83 H    0.969
    36   6 C    3.954 --    39 O    1.678    34 N    1.238    38 C    0.955
    37   6 C    3.992 --    40 C    1.005    35 C    1.002    85 H    0.976
                            84 H    0.973
    38   6 C    3.961 --    42 C    1.001    36 C    0.955    41 N    0.952
                            86 H    0.940
    39   8 O    1.988 --    36 C    1.678    34 N    0.189
    40   6 C    3.994 --    37 C    1.005    43 C    0.995    87 H    0.973
                            88 H    0.959
    41   7 N    3.426 --    44 C    1.269    38 C    0.952    89 H    0.903
                            47 O    0.191
    42   6 C    3.989 --    38 C    1.001    45 C    0.986    90 H    0.970
                            91 H    0.969
    43   6 C    3.976 --    46 N    1.031    40 C    0.995    93 H    0.968
                            92 H    0.960
    44   6 C    3.950 --    47 O    1.705    41 N    1.269     6 C    0.904
    45   6 C    3.989 --    48 C    1.009    42 C    0.986    95 H    0.981
                            94 H    0.947
    46   7 N    3.024 --    43 C    1.031    96 H    0.967    97 H    0.967
    47   8 O    2.033 --    44 C    1.705    41 N    0.191
    48   6 C    3.997 --    45 C    1.009    49 C    1.005    98 H    0.977
                            99 H    0.970
    49   6 C    3.984 --    50 N    1.033    48 C    1.005   100 H    0.973
                           101 H    0.937
    50   7 N    3.018 --    49 C    1.033   103 H    0.969   102 H    0.941
    51   6 C    3.988 --    52 C    1.011    53 C    1.004     6 C    0.973
                           104 H    0.943
    52   6 C    3.990 --    51 C    1.011   106 H    0.985   107 H    0.983
                           105 H    0.977
    53   6 C    3.993 --    51 C    1.004   109 H    0.987   110 H    0.982
                           108 H    0.981
    54   1 H    0.960 --     1 N    0.918
    55   1 H    0.991 --     2 C    0.950
    56   1 H    0.998 --     2 C    0.956
    57   1 H    0.974 --     5 N    0.948
    58   1 H    0.997 --     6 C    0.946
    59   1 H    0.995 --     8 C    0.941
    60   1 H    0.997 --    11 C    0.970
    61   1 H    0.996 --    11 C    0.968
    62   1 H    0.997 --    12 C    0.973
    63   1 H    0.998 --    12 C    0.967
    64   1 H    0.999 --    14 C    0.975
    65   1 H    0.998 --    14 C    0.980
    66   1 H    0.994 --    15 C    0.945
    67   1 H    0.957 --    17 N    0.907
    68   1 H    0.993 --    18 C    0.948
    69   1 H    0.992 --    18 C    0.967
    70   1 H    0.998 --    21 C    0.951
    71   1 H    0.999 --    24 C    0.968
    72   1 H    0.996 --    26 C    0.973
    73   1 H    0.997 --    26 C    0.979
    74   1 H    0.998 --    27 C    0.962
    75   1 H    0.975 --    28 N    0.947
    76   1 H    0.997 --    29 C    0.948
    77   1 H    0.994 --    29 C    0.969
    78   1 H    0.998 --    31 C    0.976
    79   1 H    0.995 --    31 C    0.974
    80   1 H    0.995 --    32 C    0.951
    81   1 H    0.959 --    34 N    0.921
    82   1 H    0.997 --    35 C    0.972
    83   1 H    0.996 --    35 C    0.969
    84   1 H    0.997 --    37 C    0.973
    85   1 H    1.000 --    37 C    0.976
    86   1 H    0.996 --    38 C    0.940
    87   1 H    0.999 --    40 C    0.973
    88   1 H    0.999 --    40 C    0.959
    89   1 H    0.960 --    41 N    0.903
    90   1 H    0.996 --    42 C    0.970
    91   1 H    0.996 --    42 C    0.969
    92   1 H    0.999 --    43 C    0.960
    93   1 H    0.998 --    43 C    0.968
    94   1 H    0.997 --    45 C    0.947
    95   1 H    0.997 --    45 C    0.981
    96   1 H    0.982 --    46 N    0.967
    97   1 H    0.982 --    46 N    0.967
    98   1 H    0.997 --    48 C    0.977
    99   1 H    0.999 --    48 C    0.970
   100   1 H    0.999 --    49 C    0.973
   101   1 H    1.000 --    49 C    0.937
   102   1 H    0.981 --    50 N    0.941
   103   1 H    0.981 --    50 N    0.969
   104   1 H    0.999 --    51 C    0.943
   105   1 H    0.994 --    52 C    0.977
   106   1 H    0.998 --    52 C    0.985
   107   1 H    0.997 --    52 C    0.983
   108   1 H    0.996 --    53 C    0.981
   109   1 H    0.998 --    53 C    0.987
   110   1 H    0.998 --    53 C    0.982
 ---------------------------------------------------------------------------

Topologies differ in total number of bonds
Writing topology from bond orders to xtbtopo.mol

molecular dipole:
                 x           y           z       tot (Debye)
 q only:       -0.474      -1.900       0.430
   full:        0.017      -2.799      -0.136       7.123
molecular quadrupole (traceless):
                xx          xy          yy          xz          yz          zz
 q only:       36.671       5.970       7.110      -5.553      -0.300     -43.781
  q+dip:       47.170       2.955       9.969       0.710       2.227     -57.139
   full:       46.443       1.287      10.779       1.483       2.553     -57.222


           -------------------------------------------------
          | TOTAL ENERGY             -164.549461792883 Eh   |
          | GRADIENT NORM               0.366900102672 Eh/α |
          | HOMO-LUMO GAP               2.835123365905 eV   |
           -------------------------------------------------

------------------------------------------------------------------------
 * finished run on 2026/05/23 at 12:54:23.033     
------------------------------------------------------------------------
 total:
 * wall-time:     0 d,  0 h,  0 min, 10.953 sec
 *  cpu-time:     0 d,  0 h,  0 min, 24.290 sec
 * ratio c/w:     2.218 speedup
 SCF:
 * wall-time:     0 d,  0 h,  0 min, 10.249 sec
 *  cpu-time:     0 d,  0 h,  0 min, 22.849 sec
 * ratio c/w:     2.229 speedup

normal termination of xtb
