      -----------------------------------------------------------      
     |                   =====================                   |     
     |                           x T B                           |     
     |                   =====================                   |     
     |                         S. Grimme                         |     
     |          Mulliken Center for Theoretical Chemistry        |     
     |                    University of Bonn                     |     
      -----------------------------------------------------------      

   * xtb version 6.7.1 (26dd68d) compiled by 'froitzheim@fs7' on 2026-05-14

   xtb is free software: you can redistribute it and/or modify it under
   the terms of the GNU Lesser General Public License as published by
   the Free Software Foundation, either version 3 of the License, or
   (at your option) any later version.
   
   xtb is distributed in the hope that it will be useful,
   but WITHOUT ANY WARRANTY; without even the implied warranty of
   MERCHANTABILITY or FITNESS FOR A PARTICULAR PURPOSE.  See the
   GNU Lesser General Public License for more details.
   
   Cite this work as:
   * C. Bannwarth, E. Caldeweyher, S. Ehlert, A. Hansen, P. Pracht,
     J. Seibert, S. Spicher, S. Grimme, WIREs Comput. Mol. Sci., 2020, 11,
     e01493. DOI: 10.1002/wcms.1493
   
   for g-xTB:
   * T. Froitzheim, M. Müller, A. Hansen, S. Grimme, ChemRxiv, 2025, preprint.
     DOI: 10.26434/chemrxiv-2025-bjxv
   for GFN2-xTB:
   * C. Bannwarth, S. Ehlert and S. Grimme., J. Chem. Theory Comput., 2019,
     15, 1652-1671. DOI: 10.1021/acs.jctc.8b01176
   for GFN1-xTB:
   * S. Grimme, C. Bannwarth, P. Shushkov, J. Chem. Theory Comput., 2017,
     13, 1989-2009. DOI: 10.1021/acs.jctc.7b00118
   for GFN0-xTB:
   * P. Pracht, E. Caldeweyher, S. Ehlert, S. Grimme, ChemRxiv, 2019, preprint.
     DOI: 10.26434/chemrxiv.8326202.v1
   for GFN-FF:
   * S. Spicher and S. Grimme, Angew. Chem. Int. Ed., 2020, 59, 15665-15673.
     DOI: 10.1002/anie.202004239
   
   for ALPB and GBSA implicit solvation:
   * S. Ehlert, M. Stahn, S. Spicher, S. Grimme, J. Chem. Theory Comput.,
     2021, 17, 4250-4261. DOI: 10.1021/acs.jctc.1c00471
   
   for ddCOSMO and CPCM-X implicit solvation:
   * M. Stahn, S. Ehlert, S. Grimme, J. Phys. Chem. A,
     2023, XX, XXXX-XXXX. DOI: 10.1021/acs.jpca.3c04382
   
   for DFT-D4:
   * E. Caldeweyher, C. Bannwarth and S. Grimme, J. Chem. Phys., 2017,
     147, 034112. DOI: 10.1063/1.4993215
   * E. Caldeweyher, S. Ehlert, A. Hansen, H. Neugebauer, S. Spicher,
     C. Bannwarth and S. Grimme, J. Chem. Phys., 2019, 150, 154122.
     DOI: 10.1063/1.5090222
   * E. Caldeweyher, J.-M. Mewes, S. Ehlert and S. Grimme, Phys. Chem. Chem. Phys.
     2020, 22, 8499-8512. DOI: 10.1039/D0CP00502A
   
   for sTDA-xTB:
   * S. Grimme and C. Bannwarth, J. Chem. Phys., 2016, 145, 054103.
     DOI: 10.1063/1.4959605
   
   in the mass-spec context:
   * V. Asgeirsson, C. Bauer and S. Grimme, Chem. Sci., 2017, 8, 4879.
     DOI: 10.1039/c7sc00601b
   * J. Koopman and S. Grimme, ACS Omega 2019, 4, 12, 15120-15133.
     DOI: 10.1021/acsomega.9b02011
   
   for metadynamics refer to:
   * S. Grimme, J. Chem. Theory Comput., 2019, 155, 2847-2862
     DOI: 10.1021/acs.jctc.9b00143
   
   for SPH calculations refer to:
   * S. Spicher and S. Grimme, J. Chem. Theory Comput., 2021, 17, 1701-1714
     DOI: 10.1021/acs.jctc.0c01306
   
   for ONIOM refer to:
   * C. Plett, A. Katbashev, S. Ehlert, S. Grimme, M. Bursch,
     Phys. Chem. Chem. Phys., 2023, 25, 17860-17868. DOI: 10.1039/D3CP02178E
   
   for DIPRO refer to:
   * J. Kohn, N. Gildemeister, S. Grimme, D. Fazzi, A. Hansen,
     J. Chem. Phys. 159, 144106 (2023). DOI: 10.1063/5.0167484
   
   for PTB refer to:
   * S. Grimme, M. Mueller, A. Hansen, J. Chem. Phys., 2023, 158, 124111.
     DOI: 10.1063/5.0137838
   
   with help from (in alphabetical order)
   P. Atkinson, C. Bannwarth, F. Bohle, G. Brandenburg, E. Caldeweyher,
   M. Checinski, S. Dohm, S. Ehlert, S. Ehrlich, M. Friede, T. Froitzheim,
   I. Gerasimov, C. Hölzer, A. Katbashev, J. Kohn, J. Koopman, C. Lavigne,
   S. Lehtola, F. März, M. Müller, F. Musil, H. Neugebauer, J. Pisarek,
   C. Plett, P. Pracht, F. Pultar, J. Seibert, P. Shushkov, S. Spicher,
   M. Stahn, M. Steiner, T. Strunk, J. Stückrath, T. Rose, and J. Unsleber
   
 * started run on 2026/05/23 at 12:37:33.232     
   ID    Z sym.   atoms
    1    7 N      1, 5, 13, 19, 23, 28, 35
    2    6 C      2, 3, 6-10, 12, 14, 15, 17, 20, 21, 24-26, 29, 30, 32, 33,
                  36, 37, 39, 41-44
    3    8 O      4, 11, 18, 22, 27, 31, 34, 38, 40
    4   16 S      16
    5    1 H      45-89

           -------------------------------------------------
          |                Calculation Setup                |
           -------------------------------------------------

          program call               : /home/xchen/software/xtb-6.7.1-gxtb/bin/xtb /home/xchen/Test/benchmark/md_sampled/06_7_0793_0/snap_0097.xyz --charge 0 --gxtb --norestart
          coordinate file            : /home/xchen/Test/benchmark/md_sampled/06_7_0793_0/snap_0097.xyz
          omp threads                :                    48

core increment energy         -2.3123015384480E+03 Eh
dispersion energy              2.0676820011890E-02 Eh
molecular charge               0.0000000000000E+00 e
number of electrons            2.4799999999781E+02 e
number of unpaired electrons   0.0000000000000E+00 e
wavefunction                   restricted
integral cutoff                2.6907767250513E+01 bohr
energy convergence             1.0000000000000E-06 Eh
density convergence            2.0000000000000E-05 e

------------------------------------------------------------
  cycle        total energy    energy error   density error
------------------------------------------------------------
      1     -2513.269131864  -2.0098827E+02   0.0000000E+00
      2     -2513.674761766  -4.0562990E-01   2.1754200E-02
      3     -2513.930839825  -2.5607806E-01   1.7073704E-02
      4     -2514.459888336  -5.2904851E-01   1.3480159E-02
      5     -2514.468668920  -8.7805840E-03   1.0603724E-03
      6     -2514.469239894  -5.7097418E-04   2.0377808E-04
      7     -2514.469295758  -5.5863512E-05   5.7421225E-05
      8     -2514.469300940  -5.1824744E-06   1.5365430E-05
      9     -2514.469301710  -7.6988155E-07   3.9437685E-06
------------------------------------------------------------

electronic energy             -2.0218844008231E+02 Eh
total energy                  -2.5144693017103E+03 Eh

Post processing:
 | Mayer-Wiberg bond orders
 | Molecular Multipole Moments

 total:                                  15.171 sec
 - increment                              0.000 sec (  0%)
 - repulsion                              0.013 sec (  0%)
 - dispersion                             0.719 sec (  4%)
 - coulomb                                0.213 sec (  1%)
 - exchange                               0.006 sec (  0%)
 - hamiltonian                            0.450 sec (  2%)
 - acp                                    0.376 sec (  2%)
 - spin polarization                      0.000 sec (  0%)
 - post processing                        0.071 sec (  0%)
 - scc                                   12.029 sec ( 79%)
 - coulomb gradient                       0.069 sec (  0%)
 - dispersion gradient                    0.141 sec (  0%)
 - exchange gradient                      0.188 sec (  1%)
 - repulsion gradient                     0.007 sec (  0%)
 - acp gradient                           0.393 sec (  2%)
 - hamiltonian gradient                   0.562 sec (  3%)
 - gradient                               1.360 sec (  8%)

         :::::::::::::::::::::::::::::::::::::::::::::::::::::
         ::                     SUMMARY                     ::
         :::::::::::::::::::::::::::::::::::::::::::::::::::::
         :: total energy           -2514.469301710297 Eh    ::
         :: gradient norm              0.374148477427 Eh/a0 ::
         :: HOMO-LUMO gap              9.111178243821 eV    ::
         ::.................................................::
         :: add. restraining           0.000000000000 Eh    ::
         :: total charge              -0.000000000000 e     ::
         :::::::::::::::::::::::::::::::::::::::::::::::::::::

           -------------------------------------------------
          |                Property Printout                |
           -------------------------------------------------

    * Orbital Energies and Occupations
------------------------------------------------------------------
      #    Occupation            Energy/Eh            Energy/eV
------------------------------------------------------------------
      1        2.0000           -1.3454840             -36.6125
    ...           ...                  ...                  ...
    112        2.0000           -0.3852451             -10.4831
    113        2.0000           -0.3820319             -10.3956
    114        2.0000           -0.3796164             -10.3299
    115        2.0000           -0.3740672             -10.1789
    116        2.0000           -0.3731808             -10.1548
    117        2.0000           -0.3727177             -10.1422
    118        2.0000           -0.3674352              -9.9984
    119        2.0000           -0.3612768              -9.8308
    120        2.0000           -0.3592282              -9.7751
    121        2.0000           -0.3539939              -9.6327
    122        2.0000           -0.3526474              -9.5960
    123        2.0000           -0.3497034              -9.5159
    124        2.0000           -0.3447880              -9.3822 (HOMO)
    125                         -0.0099583              -0.2710 (LUMO)
    126                          0.0099974               0.2720
    127                          0.0184131               0.5010
    128                          0.0294377               0.8010
    129                          0.0309757               0.8429
    130                          0.0373616               1.0167
    131                          0.0387651               1.0549
    132                          0.0416259               1.1327
    133                          0.0547745               1.4905
    134                          0.1199788               3.2648
    135                          0.1357035               3.6927
    ...                                ...                  ...
    226                          0.7887281              21.4624
------------------------------------------------------------------
               HL-Gap            0.3348296 Eh            9.1112 eV
------------------------------------------------------------------

Atomic charges and shell populations (in atomic units):
-----------------------------------------------------------------
     #    Z                q          p(s)       p(p)       p(d)
-----------------------------------------------------------------
     1    7 N      -0.326694      1.431105   3.895590
     2    6 C       0.007953      1.158994   2.833054
     3    6 C       0.438510      1.103665   2.457825
     4    8 O      -0.516061      1.854587   4.661475
     5    7 N      -0.336555      1.360479   3.976076
     6    6 C      -0.013542      1.110911   2.902631
     7    6 C      -0.076547      1.110927   2.965619
     8    6 C       0.431202      1.118255   2.450542
     9    6 C      -0.171090      1.144412   3.026678
    10    6 C      -0.000301      1.107630   2.892671
    11    8 O      -0.472545      1.847206   4.625339
    12    6 C      -0.174827      1.155421   3.019406
    13    7 N      -0.319732      1.362745   3.956987
    14    6 C      -0.119119      1.182044   2.937075
    15    6 C       0.412016      1.110179   2.477805
    16   16 S      -0.297969      1.875101   4.371548   0.051319
    17    6 C      -0.054583      1.135516   2.919067
    18    8 O      -0.536981      1.854850   4.682132
    19    7 N      -0.327109      1.350000   3.977110
    20    6 C       0.413283      1.097277   2.489440
    21    6 C      -0.002031      1.119975   2.882055
    22    8 O      -0.549429      1.851362   4.698067
    23    7 N      -0.309087      1.348049   3.961039
    24    6 C      -0.260741      1.178663   3.082078
    25    6 C       0.402853      1.090824   2.506324
    26    6 C      -0.001105      1.154157   2.846947
    27    8 O      -0.555530      1.854817   4.700713
    28    7 N      -0.336784      1.382537   3.954246
    29    6 C       0.123950      1.144374   2.731677
    30    6 C       0.409856      1.094070   2.496075
    31    8 O      -0.559931      1.803959   4.755971
    32    6 C      -0.271484      1.168246   3.103238
    33    6 C       0.005994      1.131772   2.862234
    34    8 O      -0.517833      1.855940   4.661893
    35    7 N      -0.326105      1.400401   3.925703
    36    6 C       0.079766      1.124943   2.795291
    37    6 C       0.412438      1.114770   2.472792
    38    8 O      -0.571216      1.802932   4.768284
    39    6 C      -0.273254      1.178601   3.094653
    40    8 O      -0.556117      1.858673   4.697444
    41    6 C      -0.112827      1.141249   2.971578
    42    6 C      -0.272462      1.160043   3.112419
    43    6 C      -0.195538      1.170746   3.024792
    44    6 C      -0.269367      1.170741   3.098626
    45    1 H       0.138966      0.861034
    46    1 H       0.276899      0.723101
    47    1 H       0.156224      0.843776
    48    1 H       0.118890      0.881110
    49    1 H       0.092436      0.907564
    50    1 H       0.099102      0.900898
    51    1 H       0.099189      0.900811
    52    1 H       0.118367      0.881633
    53    1 H       0.119734      0.880266
    54    1 H       0.110769      0.889231
    55    1 H       0.282995      0.717005
    56    1 H       0.132142      0.867858
    57    1 H       0.110083      0.889917
    58    1 H       0.182216      0.817784
    59    1 H       0.120768      0.879232
    60    1 H       0.132665      0.867335
    61    1 H       0.267479      0.732521
    62    1 H       0.132231      0.867769
    63    1 H       0.280029      0.719971
    64    1 H       0.132517      0.867483
    65    1 H       0.106668      0.893332
    66    1 H       0.099119      0.900881
    67    1 H       0.172372      0.827628
    68    1 H       0.265870      0.734130
    69    1 H       0.104915      0.895085
    70    1 H       0.340553      0.659447
    71    1 H       0.094801      0.905199
    72    1 H       0.114631      0.885369
    73    1 H       0.094639      0.905361
    74    1 H       0.121346      0.878654
    75    1 H       0.264396      0.735604
    76    1 H       0.094492      0.905508
    77    1 H       0.358533      0.641467
    78    1 H       0.112671      0.887329
    79    1 H       0.108332      0.891668
    80    1 H       0.100742      0.899258
    81    1 H       0.092049      0.907951
    82    1 H       0.111357      0.888643
    83    1 H       0.102981      0.897019
    84    1 H       0.093923      0.906077
    85    1 H       0.100941      0.899059
    86    1 H       0.098803      0.901197
    87    1 H       0.095508      0.904492
    88    1 H       0.106572      0.893428
    89    1 H       0.086759      0.913241
-----------------------------------------------------------------


Wiberg/Mayer (AO) data.
largest (>0.10) Wiberg bond orders for each atom

 ---------------------------------------------------------------------------
     #   Z sym  total        # sym  WBO       # sym  WBO       # sym  WBO
 ---------------------------------------------------------------------------
     1   7 N    3.229 --     8 C    1.095     7 C    0.945     2 C    0.908
                            11 C    0.126
     2   6 C    3.911 --    12 C    0.995    45 N    0.935     3 C    0.933
                             1 N    0.908
     3   6 C    3.868 --     4 C    1.698     5 N    1.174     2 C    0.933
     4   8 C    1.978 --     3 C    1.698     5 N    0.162
     5   7 N    3.304 --     3 C    1.174     6 C    0.993    46 N    0.862
                             4 C    0.162
     6   6 C    3.940 --     5 N    0.993    41 C    0.963    37 C    0.930
                            47 N    0.918
     7   6 C    3.931 --     9 C    1.035    48 N    0.948    49 N    0.947
                             1 N    0.945
     8   6 C    3.837 --    11 C    1.786     1 N    1.095    10 C    0.856
     9   6 C    3.964 --     7 C    1.035    12 C    0.981    51 N    0.956
                            50 N    0.954
    10   6 C    3.947 --    13 N    1.011    14 C    0.999    52 N    0.930
                             8 C    0.856
    11   8 C    2.050 --     8 C    1.786     1 N    0.126
    12   6 C    3.956 --     2 C    0.995     9 C    0.981    53 N    0.963
                            54 N    0.960
    13   7 N    3.309 --    15 C    1.188    10 C    1.011    55 N    0.862
                            18 C    0.144
    14   6 C    3.933 --    10 C    0.999    16 O    0.984    56 N    0.946
                            57 N    0.945
    15   6 C    3.863 --    18 C    1.684    13 N    1.188    17 C    0.923
    16  16 O    1.999 --    14 C    0.984    58 N    0.950
    17   6 C    3.914 --    19 N    0.975    59 N    0.959    60 N    0.948
                            15 C    0.923
    18   8 C    1.942 --    15 C    1.684    13 N    0.144
    19   7 N    3.329 --    20 C    1.213    17 C    0.975    61 N    0.898
                            22 C    0.161
    20   6 C    3.873 --    22 C    1.631    19 N    1.213    21 C    0.960
    21   6 C    3.933 --    23 N    0.973    24 C    0.961    20 C    0.960
                            62 N    0.929
    22   8 C    1.940 --    20 C    1.631    19 N    0.161
    23   7 N    3.370 --    25 C    1.279    21 C    0.973    63 N    0.873
                            27 C    0.162
    24   6 C    3.944 --    65 N    0.973    66 N    0.973    64 N    0.962
                            21 C    0.961
    25   6 C    3.883 --    27 C    1.613    23 N    1.279    26 C    0.925
    26   6 C    3.901 --    28 N    0.953    29 C    0.932    67 N    0.932
                            25 C    0.925
    27   8 C    1.906 --    25 C    1.613    23 N    0.162
    28   7 N    3.308 --    30 C    1.223    26 C    0.953    68 N    0.883
                            34 C    0.162
    29   6 C    3.890 --    32 C    1.016    69 N    0.943    31 C    0.940
                            26 C    0.932
    30   6 C    3.889 --    34 C    1.670    28 N    1.223    33 C    0.927
    31   8 C    1.883 --    29 C    0.940    70 N    0.863
    32   6 C    3.957 --    29 C    1.016    71 N    0.970    73 N    0.970
                            72 N    0.963
    33   6 C    3.937 --    36 C    0.983    35 N    0.948    74 N    0.931
                            30 C    0.927
    34   8 C    1.948 --    30 C    1.670    28 N    0.162
    35   7 N    3.288 --    37 C    1.214    33 C    0.948    75 N    0.892
                            40 C    0.141
    36   6 C    3.902 --    33 C    0.983    39 C    0.981    38 C    0.943
                            76 N    0.940
    37   6 C    3.860 --    40 C    1.632    35 N    1.214     6 C    0.930
    38   8 C    1.880 --    36 C    0.943    77 N    0.837
    39   6 C    3.950 --    36 C    0.981    80 N    0.974    79 N    0.973
                            78 N    0.968
    40   8 C    1.917 --    37 C    1.632    35 N    0.141
    41   6 C    3.972 --    42 C    1.010    43 C    0.977     6 C    0.963
                            81 N    0.952
    42   6 C    3.956 --    41 C    1.010    83 N    0.974    84 N    0.971
                            82 N    0.966
    43   6 C    3.958 --    44 C    1.010    41 C    0.977    85 N    0.963
                            86 N    0.951
    44   6 C    3.956 --    43 C    1.010    89 N    0.977    87 N    0.974
                            88 N    0.971
    45   1 N    0.981 --     2 C    0.935
    46   1 N    0.923 --     5 N    0.862
    47   1 N    0.976 --     6 C    0.918
    48   1 N    0.986 --     7 C    0.948
    49   1 N    0.991 --     7 C    0.947
    50   1 N    0.990 --     9 C    0.954
    51   1 N    0.990 --     9 C    0.956
    52   1 N    0.986 --    10 C    0.930
    53   1 N    0.986 --    12 C    0.963
    54   1 N    0.988 --    12 C    0.960
    55   1 N    0.920 --    13 N    0.862
    56   1 N    0.983 --    14 C    0.946
    57   1 N    0.988 --    14 C    0.945
    58   1 N    0.967 --    16 O    0.950
    59   1 N    0.985 --    17 C    0.959
    60   1 N    0.982 --    17 C    0.948
    61   1 N    0.928 --    19 N    0.898
    62   1 N    0.983 --    21 C    0.929
    63   1 N    0.922 --    23 N    0.873
    64   1 N    0.982 --    24 C    0.962
    65   1 N    0.989 --    24 C    0.973
    66   1 N    0.990 --    24 C    0.973
    67   1 N    0.970 --    26 C    0.932
    68   1 N    0.929 --    28 N    0.883
    69   1 N    0.989 --    29 C    0.943
    70   1 N    0.884 --    31 C    0.863
    71   1 N    0.991 --    32 C    0.970
    72   1 N    0.987 --    32 C    0.963
    73   1 N    0.991 --    32 C    0.970
    74   1 N    0.985 --    33 C    0.931
    75   1 N    0.930 --    35 N    0.892
    76   1 N    0.991 --    36 C    0.940
    77   1 N    0.871 --    38 C    0.837
    78   1 N    0.987 --    39 C    0.968
    79   1 N    0.988 --    39 C    0.973
    80   1 N    0.990 --    39 C    0.974
    81   1 N    0.992 --    41 C    0.952
    82   1 N    0.988 --    42 C    0.966
    83   1 N    0.989 --    42 C    0.974
    84   1 N    0.991 --    42 C    0.971
    85   1 N    0.990 --    43 C    0.963
    86   1 N    0.990 --    43 C    0.951
    87   1 N    0.991 --    44 C    0.974
    88   1 N    0.989 --    44 C    0.971
    89   1 N    0.992 --    44 C    0.977
 ---------------------------------------------------------------------------

Topologies differ in total number of bonds
Writing topology from bond orders to xtbtopo.mol

Atomic dipole moments (in atomic units):
---------------------------------------------------------
     #    Z                 x            y            z
---------------------------------------------------------
           total     0.187215     0.199212     2.148049
---------------------------------------------------------
         |total|     2.165376     5.503836 Debye


           -------------------------------------------------
          | TOTAL ENERGY            -2514.469301710297 Eh   |
          | GRADIENT NORM               0.374148477427 Eh/α |
           -------------------------------------------------

------------------------------------------------------------------------
 * finished run on 2026/05/23 at 12:37:49.247     
------------------------------------------------------------------------
 total:
 * wall-time:     0 d,  0 h,  0 min, 16.014 sec
 *  cpu-time:     0 d,  0 h,  0 min, 29.282 sec
 * ratio c/w:     1.828 speedup
 SCF:
 * wall-time:     0 d,  0 h,  0 min, 15.519 sec
 *  cpu-time:     0 d,  0 h,  0 min, 28.799 sec
 * ratio c/w:     1.856 speedup

normal termination of xtb
