      -----------------------------------------------------------      
     |                   =====================                   |     
     |                           x T B                           |     
     |                   =====================                   |     
     |                         S. Grimme                         |     
     |          Mulliken Center for Theoretical Chemistry        |     
     |                    University of Bonn                     |     
      -----------------------------------------------------------      

   * xtb version 6.7.1 (26dd68d) compiled by 'froitzheim@fs7' on 2026-05-14

   xtb is free software: you can redistribute it and/or modify it under
   the terms of the GNU Lesser General Public License as published by
   the Free Software Foundation, either version 3 of the License, or
   (at your option) any later version.
   
   xtb is distributed in the hope that it will be useful,
   but WITHOUT ANY WARRANTY; without even the implied warranty of
   MERCHANTABILITY or FITNESS FOR A PARTICULAR PURPOSE.  See the
   GNU Lesser General Public License for more details.
   
   Cite this work as:
   * C. Bannwarth, E. Caldeweyher, S. Ehlert, A. Hansen, P. Pracht,
     J. Seibert, S. Spicher, S. Grimme, WIREs Comput. Mol. Sci., 2020, 11,
     e01493. DOI: 10.1002/wcms.1493
   
   for g-xTB:
   * T. Froitzheim, M. Müller, A. Hansen, S. Grimme, ChemRxiv, 2025, preprint.
     DOI: 10.26434/chemrxiv-2025-bjxv
   for GFN2-xTB:
   * C. Bannwarth, S. Ehlert and S. Grimme., J. Chem. Theory Comput., 2019,
     15, 1652-1671. DOI: 10.1021/acs.jctc.8b01176
   for GFN1-xTB:
   * S. Grimme, C. Bannwarth, P. Shushkov, J. Chem. Theory Comput., 2017,
     13, 1989-2009. DOI: 10.1021/acs.jctc.7b00118
   for GFN0-xTB:
   * P. Pracht, E. Caldeweyher, S. Ehlert, S. Grimme, ChemRxiv, 2019, preprint.
     DOI: 10.26434/chemrxiv.8326202.v1
   for GFN-FF:
   * S. Spicher and S. Grimme, Angew. Chem. Int. Ed., 2020, 59, 15665-15673.
     DOI: 10.1002/anie.202004239
   
   for ALPB and GBSA implicit solvation:
   * S. Ehlert, M. Stahn, S. Spicher, S. Grimme, J. Chem. Theory Comput.,
     2021, 17, 4250-4261. DOI: 10.1021/acs.jctc.1c00471
   
   for ddCOSMO and CPCM-X implicit solvation:
   * M. Stahn, S. Ehlert, S. Grimme, J. Phys. Chem. A,
     2023, XX, XXXX-XXXX. DOI: 10.1021/acs.jpca.3c04382
   
   for DFT-D4:
   * E. Caldeweyher, C. Bannwarth and S. Grimme, J. Chem. Phys., 2017,
     147, 034112. DOI: 10.1063/1.4993215
   * E. Caldeweyher, S. Ehlert, A. Hansen, H. Neugebauer, S. Spicher,
     C. Bannwarth and S. Grimme, J. Chem. Phys., 2019, 150, 154122.
     DOI: 10.1063/1.5090222
   * E. Caldeweyher, J.-M. Mewes, S. Ehlert and S. Grimme, Phys. Chem. Chem. Phys.
     2020, 22, 8499-8512. DOI: 10.1039/D0CP00502A
   
   for sTDA-xTB:
   * S. Grimme and C. Bannwarth, J. Chem. Phys., 2016, 145, 054103.
     DOI: 10.1063/1.4959605
   
   in the mass-spec context:
   * V. Asgeirsson, C. Bauer and S. Grimme, Chem. Sci., 2017, 8, 4879.
     DOI: 10.1039/c7sc00601b
   * J. Koopman and S. Grimme, ACS Omega 2019, 4, 12, 15120-15133.
     DOI: 10.1021/acsomega.9b02011
   
   for metadynamics refer to:
   * S. Grimme, J. Chem. Theory Comput., 2019, 155, 2847-2862
     DOI: 10.1021/acs.jctc.9b00143
   
   for SPH calculations refer to:
   * S. Spicher and S. Grimme, J. Chem. Theory Comput., 2021, 17, 1701-1714
     DOI: 10.1021/acs.jctc.0c01306
   
   for ONIOM refer to:
   * C. Plett, A. Katbashev, S. Ehlert, S. Grimme, M. Bursch,
     Phys. Chem. Chem. Phys., 2023, 25, 17860-17868. DOI: 10.1039/D3CP02178E
   
   for DIPRO refer to:
   * J. Kohn, N. Gildemeister, S. Grimme, D. Fazzi, A. Hansen,
     J. Chem. Phys. 159, 144106 (2023). DOI: 10.1063/5.0167484
   
   for PTB refer to:
   * S. Grimme, M. Mueller, A. Hansen, J. Chem. Phys., 2023, 158, 124111.
     DOI: 10.1063/5.0137838
   
   with help from (in alphabetical order)
   P. Atkinson, C. Bannwarth, F. Bohle, G. Brandenburg, E. Caldeweyher,
   M. Checinski, S. Dohm, S. Ehlert, S. Ehrlich, M. Friede, T. Froitzheim,
   I. Gerasimov, C. Hölzer, A. Katbashev, J. Kohn, J. Koopman, C. Lavigne,
   S. Lehtola, F. März, M. Müller, F. Musil, H. Neugebauer, J. Pisarek,
   C. Plett, P. Pracht, F. Pultar, J. Seibert, P. Shushkov, S. Spicher,
   M. Stahn, M. Steiner, T. Strunk, J. Stückrath, T. Rose, and J. Unsleber
   
 * started run on 2026/05/23 at 12:58:55.958     
   ID    Z sym.   atoms
    1    7 N      1, 5, 10, 17, 27, 34, 39, 43, 54, 56, 57
    2    6 C      2, 3, 6-8, 11-14, 16, 18, 21-23, 28-31, 33, 35-38, 40,
                  44-48, 50-53, 55, 58
    3    8 O      4, 9, 15, 19, 20, 24-26, 32, 41, 49
    4   16 S      42
    5    1 H      59-117

           -------------------------------------------------
          |                Calculation Setup                |
           -------------------------------------------------

          program call               : /home/xchen/software/xtb-6.7.1-gxtb/bin/xtb /home/xchen/Test/benchmark/md_sampled/04_7_0231_n2/snap_0151.xyz --charge -2 --gxtb --norestart
          coordinate file            : /home/xchen/Test/benchmark/md_sampled/04_7_0231_n2/snap_0151.xyz
          omp threads                :                    48

core increment energy         -2.9312527735450E+03 Eh
dispersion energy              2.3389877024813E-02 Eh
molecular charge              -2.0000000000000E+00 e
number of electrons            3.2799999999710E+02 e
number of unpaired electrons   0.0000000000000E+00 e
wavefunction                   restricted
integral cutoff                2.6907767250513E+01 bohr
energy convergence             1.0000000000000E-06 Eh
density convergence            2.0000000000000E-05 e

------------------------------------------------------------
  cycle        total energy    energy error   density error
------------------------------------------------------------
      1     -3195.858666875  -2.6462928E+02   0.0000000E+00
      2     -3196.361305140  -5.0263826E-01   2.0518651E-02
      3     -3196.681930075  -3.2062493E-01   1.6102818E-02
      4     -3197.355125349  -6.7319527E-01   1.2696198E-02
      5     -3197.365114233  -9.9888838E-03   8.7797194E-04
      6     -3197.365963108  -8.4887501E-04   1.7951794E-04
      7     -3197.366035352  -7.2244595E-05   5.3469665E-05
      8     -3197.366041045  -5.6928775E-06   1.5992166E-05
      9     -3197.366041764  -7.1909045E-07   2.6216967E-06
------------------------------------------------------------

electronic energy             -2.6613665809620E+02 Eh
total energy                  -3.1973660417642E+03 Eh

Post processing:
 | Mayer-Wiberg bond orders
 | Molecular Multipole Moments

 total:                                  13.461 sec
 - increment                              0.000 sec (  0%)
 - repulsion                              0.013 sec (  0%)
 - dispersion                             0.464 sec (  3%)
 - coulomb                                0.220 sec (  1%)
 - exchange                               0.009 sec (  0%)
 - hamiltonian                            0.431 sec (  3%)
 - acp                                    0.285 sec (  2%)
 - spin polarization                      0.000 sec (  0%)
 - post processing                        0.045 sec (  0%)
 - scc                                   10.430 sec ( 77%)
 - coulomb gradient                       0.236 sec (  1%)
 - dispersion gradient                    0.048 sec (  0%)
 - exchange gradient                      0.199 sec (  1%)
 - repulsion gradient                     0.006 sec (  0%)
 - acp gradient                           0.536 sec (  3%)
 - hamiltonian gradient                   0.501 sec (  3%)
 - gradient                               1.525 sec ( 11%)

         :::::::::::::::::::::::::::::::::::::::::::::::::::::
         ::                     SUMMARY                     ::
         :::::::::::::::::::::::::::::::::::::::::::::::::::::
         :: total energy           -3197.366041764171 Eh    ::
         :: gradient norm              0.413827739743 Eh/a0 ::
         :: HOMO-LUMO gap              6.271910591445 eV    ::
         ::.................................................::
         :: add. restraining           0.000000000000 Eh    ::
         :: total charge              -2.000000000000 e     ::
         :::::::::::::::::::::::::::::::::::::::::::::::::::::

           -------------------------------------------------
          |                Property Printout                |
           -------------------------------------------------

    * Orbital Energies and Occupations
------------------------------------------------------------------
      #    Occupation            Energy/Eh            Energy/eV
------------------------------------------------------------------
      1        2.0000           -1.1962618             -32.5519
    ...           ...                  ...                  ...
    152        2.0000           -0.2123573              -5.7785
    153        2.0000           -0.2120864              -5.7712
    154        2.0000           -0.2067810              -5.6268
    155        2.0000           -0.2047058              -5.5703
    156        2.0000           -0.1959831              -5.3330
    157        2.0000           -0.1887747              -5.1368
    158        2.0000           -0.1818828              -4.9493
    159        2.0000           -0.1773787              -4.8267
    160        2.0000           -0.1665740              -4.5327
    161        2.0000           -0.1579369              -4.2977
    162        2.0000           -0.1187046              -3.2301
    163        2.0000           -0.1012003              -2.7538
    164        2.0000           -0.0960054              -2.6124 (HOMO)
    165                          0.1344831               3.6595 (LUMO)
    166                          0.1390855               3.7847
    167                          0.1411912               3.8420
    168                          0.1527064               4.1554
    169                          0.1660505               4.5185
    170                          0.1667225               4.5368
    171                          0.1802380               4.9045
    172                          0.1887568               5.1363
    173                          0.1955637               5.3216
    174                          0.2065671               5.6210
    175                          0.2353127               6.4032
    ...                                ...                  ...
    296                          0.9470588              25.7708
------------------------------------------------------------------
               HL-Gap            0.2304885 Eh            6.2719 eV
------------------------------------------------------------------

Atomic charges and shell populations (in atomic units):
-----------------------------------------------------------------
     #    Z                q          p(s)       p(p)       p(d)
-----------------------------------------------------------------
     1    7 N      -0.369131      1.368027   4.001105
     2    6 C       0.009301      1.099523   2.891176
     3    6 C       0.438187      1.099358   2.462454
     4    8 O      -0.589647      1.857768   4.731879
     5    7 N      -0.325715      1.352460   3.973255
     6    6 C       0.003187      1.126958   2.869855
     7    6 C       0.408458      1.116878   2.474665
     8    6 C      -0.008506      1.127929   2.880577
     9    8 O      -0.530085      1.856608   4.673477
    10    7 N      -0.295369      1.368059   3.927310
    11    6 C      -0.167250      1.154309   3.012941
    12    6 C       0.421966      1.102402   2.475633
    13    6 C      -0.201265      1.153300   3.047965
    14    6 C      -0.018549      1.122599   2.895950
    15    8 O      -0.617898      1.852149   4.765750
    16    6 C       0.517773      1.063874   2.418353
    17    7 N      -0.532811      1.544480   3.988330
    18    6 C      -0.212353      1.138681   3.073672
    19    8 O      -0.721008      1.855367   4.865642
    20    8 O      -0.704535      1.854009   4.850526
    21    6 C       0.375079      1.103824   2.521097
    22    6 C       0.532027      1.078448   2.389526
    23    6 C      -0.023866      1.124222   2.899644
    24    8 O      -0.662902      1.848744   4.814159
    25    8 O      -0.553023      1.853467   4.699557
    26    8 O      -0.542744      1.797572   4.745172
    27    7 N      -0.352348      1.370375   3.981973
    28    6 C      -0.154210      1.156808   2.997402
    29    6 C       0.415440      1.098037   2.486523
    30    6 C      -0.182303      1.156023   3.026280
    31    6 C       0.003278      1.134844   2.861878
    32    8 O      -0.524368      1.854811   4.669557
    33    6 C      -0.215907      1.164272   3.051634
    34    7 N      -0.335181      1.372367   3.962813
    35    6 C      -0.189280      1.160896   3.028384
    36    6 C      -0.062474      1.125593   2.936882
    37    6 C       0.409749      1.112649   2.477602
    38    6 C      -0.136228      1.168627   2.967601
    39    7 N      -0.536956      1.322698   4.214259
    40    6 C       0.012174      1.133063   2.854763
    41    8 O      -0.545865      1.853698   4.692167
    42   16 S      -0.219053      1.862684   4.271504   0.084865
    43    7 N      -0.370426      1.352730   4.017695
    44    6 C      -0.114367      1.127533   2.986834
    45    6 C      -0.207548      1.189701   3.017847
    46    6 C       0.408853      1.124526   2.466620
    47    6 C      -0.276335      1.173566   3.102769
    48    6 C      -0.166612      1.164726   3.001886
    49    8 O      -0.498834      1.858728   4.640106
    50    6 C      -0.254087      1.172179   3.081908
    51    6 C      -0.179409      1.157396   3.022012
    52    6 C      -0.183292      1.175000   3.008292
    53    6 C      -0.091151      1.140668   2.950484
    54    7 N      -0.404280      1.424565   3.979715
    55    6 C       0.263981      1.102414   2.633604
    56    7 N      -0.566046      1.593116   3.972929
    57    7 N      -0.431714      1.426913   4.004801
    58    6 C      -0.254415      1.167136   3.087278
    59    1 H       0.300966      0.699034
    60    1 H       0.118574      0.881426
    61    1 H       0.278383      0.721617
    62    1 H       0.143727      0.856273
    63    1 H       0.105610      0.894390
    64    1 H       0.286888      0.713112
    65    1 H       0.100679      0.899321
    66    1 H       0.095109      0.904891
    67    1 H       0.125830      0.874170
    68    1 H       0.083303      0.916697
    69    1 H       0.124920      0.875080
    70    1 H       0.392258      0.607742
    71    1 H       0.142095      0.857905
    72    1 H       0.131513      0.868487
    73    1 H       0.115413      0.884587
    74    1 H       0.271386      0.728614
    75    1 H       0.080883      0.919117
    76    1 H       0.093911      0.906089
    77    1 H       0.110087      0.889913
    78    1 H       0.065970      0.934030
    79    1 H       0.107532      0.892468
    80    1 H       0.134438      0.865562
    81    1 H       0.072712      0.927288
    82    1 H       0.269419      0.730581
    83    1 H       0.134927      0.865073
    84    1 H       0.123702      0.876298
    85    1 H       0.103462      0.896538
    86    1 H       0.029809      0.970191
    87    1 H       0.113458      0.886542
    88    1 H       0.109943      0.890057
    89    1 H       0.277357      0.722643
    90    1 H       0.222263      0.777737
    91    1 H       0.112930      0.887070
    92    1 H       0.266147      0.733853
    93    1 H       0.116484      0.883516
    94    1 H       0.116598      0.883402
    95    1 H       0.099250      0.900750
    96    1 H       0.101025      0.898975
    97    1 H       0.081085      0.918915
    98    1 H       0.094743      0.905257
    99    1 H       0.091763      0.908237
   100    1 H       0.080449      0.919551
   101    1 H       0.102976      0.897024
   102    1 H       0.087714      0.912286
   103    1 H       0.107005      0.892995
   104    1 H       0.068051      0.931949
   105    1 H       0.124318      0.875682
   106    1 H       0.095700      0.904300
   107    1 H       0.096130      0.903870
   108    1 H       0.126822      0.873178
   109    1 H       0.092619      0.907381
   110    1 H       0.093405      0.906595
   111    1 H       0.254956      0.745044
   112    1 H       0.226701      0.773299
   113    1 H       0.248449      0.751551
   114    1 H       0.253325      0.746675
   115    1 H       0.122909      0.877091
   116    1 H       0.058303      0.941697
   117    1 H       0.123510      0.876490
-----------------------------------------------------------------


Wiberg/Mayer (AO) data.
largest (>0.10) Wiberg bond orders for each atom

 ---------------------------------------------------------------------------
     #   Z sym  total        # sym  WBO       # sym  WBO       # sym  WBO
 ---------------------------------------------------------------------------
     1   7 N    3.300 --     7 C    1.219     2 C    0.982    59 N    0.811
                             9 C    0.161
     2   6 C    3.959 --    51 C    0.988     1 N    0.982     3 C    0.951
                            60 N    0.925
     3   6 C    3.865 --     4 C    1.604     5 N    1.221     2 C    0.951
     4   8 C    1.874 --     3 C    1.604     5 N    0.144
     5   7 N    3.313 --     3 C    1.221     6 C    0.968    61 N    0.887
                             4 C    0.144
     6   6 C    3.939 --    58 C    1.009     5 N    0.968    62 N    0.918
                            46 C    0.910
     7   6 C    3.856 --     9 C    1.650     1 N    1.219     8 C    0.907
     8   6 C    3.925 --    11 C    0.991    10 N    0.965    63 N    0.926
                             7 C    0.907
     9   8 C    1.961 --     7 C    1.650     1 N    0.161
    10   7 N    3.372 --    12 C    1.293     8 C    0.965    64 N    0.859
                            15 C    0.150
    11   6 C    3.951 --    13 C    0.999     8 C    0.991    66 N    0.952
                            65 N    0.935
    12   6 C    3.863 --    15 C    1.513    10 N    1.293    14 C    0.968
    13   6 C    3.954 --    11 C    0.999    68 N    0.961    67 N    0.942
                            16 C    0.931
    14   6 C    3.959 --    17 N    0.975    18 C    0.968    12 C    0.968
                            69 N    0.936
    15   8 C    1.869 --    12 C    1.513    10 N    0.150
    16   6 C    3.872 --    20 C    1.477    19 C    1.446    13 C    0.931
    17   7 N    2.965 --    21 C    1.469    14 C    0.975    24 C    0.182
                            70 N    0.180
    18   6 C    3.962 --    22 C    0.988    14 C    0.968    72 N    0.943
                            71 N    0.938
    19   8 C    1.721 --    16 C    1.446    20 C    0.196
    20   8 C    1.747 --    16 C    1.477    19 C    0.196
    21   6 C    3.896 --    24 C    1.479    17 N    1.469    23 C    0.875
    22   6 C    3.838 --    25 C    1.674    26 C    1.143    18 C    0.988
    23   6 C    3.922 --    28 C    0.987    27 N    0.979    73 N    0.940
                            21 C    0.875
    24   8 C    1.825 --    21 C    1.479    17 N    0.182
    25   8 C    1.931 --    22 C    1.674    26 C    0.157
    26   8 C    2.068 --    22 C    1.143    70 N    0.647    25 C    0.157
    27   7 N    3.317 --    29 C    1.212    23 C    0.979    74 N    0.860
                            32 C    0.169
    28   6 C    3.965 --    30 C    0.999    23 C    0.987    75 N    0.961
                            76 N    0.954
    29   6 C    3.882 --    32 C    1.674    27 N    1.212    31 C    0.928
    30   6 C    3.966 --    33 C    1.008    28 C    0.999    78 N    0.959
                            77 N    0.946
    31   6 C    3.929 --    35 C    0.983    34 N    0.952    79 N    0.930
                            29 C    0.928
    32   8 C    1.963 --    29 C    1.674    27 N    0.169
    33   6 C    3.959 --    30 C    1.008    36 C    0.979    81 N    0.959
                            80 N    0.940
    34   7 N    3.338 --    37 C    1.247    31 C    0.952    82 N    0.880
                            41 C    0.166
    35   6 C    3.948 --    38 C    0.990    31 C    0.983    83 N    0.952
                            84 N    0.950
    36   6 C    3.959 --    39 N    1.058    33 C    0.979    85 N    0.956
                            86 N    0.945
    37   6 C    3.864 --    41 C    1.650    34 N    1.247    40 C    0.881
    38   6 C    3.944 --    42 O    1.006    35 C    0.990    87 N    0.955
                            88 N    0.955
    39   7 N    2.968 --    36 C    1.058    90 N    0.926    89 N    0.898
    40   6 C    3.934 --    43 N    0.996    44 C    0.976    91 N    0.934
                            37 C    0.881
    41   8 C    1.941 --    37 C    1.650    34 N    0.166
    42  16 O    2.120 --    38 C    1.006    45 C    1.004
    43   7 N    3.299 --    46 C    1.147    40 C    0.996    92 N    0.876
                            49 C    0.155
    44   6 C    3.973 --    47 C    0.996    48 C    0.994    40 C    0.976
                            93 N    0.947
    45   6 C    3.928 --    42 O    1.004    96 N    0.966    94 N    0.963
                            95 N    0.959
    46   6 C    3.848 --    49 C    1.715    43 N    1.147     6 C    0.910
    47   6 C    3.959 --    44 C    0.996    99 N    0.977    98 N    0.973
                            97 N    0.972
    48   6 C    3.960 --    50 C    1.015    44 C    0.994   100 N    0.958
                           101 N    0.954
    49   8 C    1.994 --    46 C    1.715    43 N    0.155
    50   6 C    3.961 --    48 C    1.015   104 N    0.978   103 N    0.972
                           102 N    0.972
    51   6 C    3.959 --    52 C    0.995     2 C    0.988   105 N    0.956
                           106 N    0.953
    52   6 C    3.950 --    51 C    0.995    53 C    0.988   107 N    0.960
                           108 N    0.958
    53   6 C    3.932 --    54 N    0.996    52 C    0.988   110 N    0.955
                           109 N    0.950
    54   7 N    3.130 --    55 C    1.062    53 C    0.996   111 N    0.889
    55   6 C    3.939 --    56 N    1.688    57 N    1.153    54 N    1.062
    56   7 N    2.861 --    55 C    1.688   112 N    0.915    57 N    0.111
    57   7 N    3.136 --    55 C    1.153   113 N    0.910   114 N    0.909
                            56 N    0.111
    58   6 C    3.952 --     6 C    1.009   117 N    0.964   115 N    0.964
                           116 N    0.952
    59   1 N    0.909 --     1 N    0.811
    60   1 N    0.986 --     2 C    0.925
    61   1 N    0.923 --     5 N    0.887
    62   1 N    0.979 --     6 C    0.918
    63   1 N    0.989 --     8 C    0.926
    64   1 N    0.918 --    10 N    0.859
    65   1 N    0.990 --    11 C    0.935
    66   1 N    0.991 --    11 C    0.952
    67   1 N    0.984 --    13 C    0.942
    68   1 N    0.993 --    13 C    0.961
    69   1 N    0.984 --    14 C    0.936
    70   1 N    0.846 --    26 C    0.647    17 N    0.180
    71   1 N    0.980 --    18 C    0.938
    72   1 N    0.983 --    18 C    0.943
    73   1 N    0.987 --    23 C    0.940
    74   1 N    0.926 --    27 N    0.860
    75   1 N    0.993 --    28 C    0.961
    76   1 N    0.991 --    28 C    0.954
    77   1 N    0.988 --    30 C    0.946
    78   1 N    0.996 --    30 C    0.959
    79   1 N    0.988 --    31 C    0.930
    80   1 N    0.982 --    33 C    0.940
    81   1 N    0.995 --    33 C    0.959
    82   1 N    0.927 --    34 N    0.880
    83   1 N    0.982 --    35 C    0.952
    84   1 N    0.985 --    35 C    0.950
    85   1 N    0.989 --    36 C    0.956
    86   1 N    0.999 --    36 C    0.945
    87   1 N    0.987 --    38 C    0.955
    88   1 N    0.988 --    38 C    0.955
    89   1 N    0.923 --    39 N    0.898
    90   1 N    0.951 --    39 N    0.926
    91   1 N    0.987 --    40 C    0.934
    92   1 N    0.929 --    43 N    0.876
    93   1 N    0.986 --    44 C    0.947
    94   1 N    0.986 --    45 C    0.963
    95   1 N    0.990 --    45 C    0.959
    96   1 N    0.990 --    45 C    0.966
    97   1 N    0.993 --    47 C    0.972
    98   1 N    0.991 --    47 C    0.973
    99   1 N    0.992 --    47 C    0.977
   100   1 N    0.994 --    48 C    0.958
   101   1 N    0.989 --    48 C    0.954
   102   1 N    0.992 --    50 C    0.972
   103   1 N    0.989 --    50 C    0.972
   104   1 N    0.995 --    50 C    0.978
   105   1 N    0.985 --    51 C    0.956
   106   1 N    0.991 --    51 C    0.953
   107   1 N    0.991 --    52 C    0.960
   108   1 N    0.984 --    52 C    0.958
   109   1 N    0.991 --    53 C    0.950
   110   1 N    0.991 --    53 C    0.955
   111   1 N    0.935 --    54 N    0.889
   112   1 N    0.949 --    56 N    0.915
   113   1 N    0.938 --    57 N    0.910
   114   1 N    0.936 --    57 N    0.909
   115   1 N    0.985 --    58 C    0.964
   116   1 N    0.997 --    58 C    0.952
   117   1 N    0.985 --    58 C    0.964
 ---------------------------------------------------------------------------

Topologies differ in total number of bonds
Writing topology from bond orders to xtbtopo.mol

Atomic dipole moments (in atomic units):
---------------------------------------------------------
     #    Z                 x            y            z
---------------------------------------------------------
           total    -0.796251    13.356515     3.208333
---------------------------------------------------------
         |total|    13.759503    34.973167 Debye


           -------------------------------------------------
          | TOTAL ENERGY            -3197.366041764171 Eh   |
          | GRADIENT NORM               0.413827739743 Eh/α |
           -------------------------------------------------

------------------------------------------------------------------------
 * finished run on 2026/05/23 at 12:59:10.516     
------------------------------------------------------------------------
 total:
 * wall-time:     0 d,  0 h,  0 min, 14.556 sec
 *  cpu-time:     0 d,  0 h,  0 min, 36.596 sec
 * ratio c/w:     2.514 speedup
 SCF:
 * wall-time:     0 d,  0 h,  0 min, 13.860 sec
 *  cpu-time:     0 d,  0 h,  0 min, 35.386 sec
 * ratio c/w:     2.553 speedup

normal termination of xtb
