      -----------------------------------------------------------      
     |                   =====================                   |     
     |                           x T B                           |     
     |                   =====================                   |     
     |                         S. Grimme                         |     
     |          Mulliken Center for Theoretical Chemistry        |     
     |                    University of Bonn                     |     
      -----------------------------------------------------------      

   * xtb version 6.7.1 (edcfbbe) compiled by 'albert@albert-system' on 2024-07-22

   xtb is free software: you can redistribute it and/or modify it under
   the terms of the GNU Lesser General Public License as published by
   the Free Software Foundation, either version 3 of the License, or
   (at your option) any later version.
   
   xtb is distributed in the hope that it will be useful,
   but WITHOUT ANY WARRANTY; without even the implied warranty of
   MERCHANTABILITY or FITNESS FOR A PARTICULAR PURPOSE.  See the
   GNU Lesser General Public License for more details.
   
   Cite this work as:
   * C. Bannwarth, E. Caldeweyher, S. Ehlert, A. Hansen, P. Pracht,
     J. Seibert, S. Spicher, S. Grimme, WIREs Comput. Mol. Sci., 2020, 11,
     e01493. DOI: 10.1002/wcms.1493
   
   for GFN2-xTB:
   * C. Bannwarth, S. Ehlert and S. Grimme., J. Chem. Theory Comput., 2019,
     15, 1652-1671. DOI: 10.1021/acs.jctc.8b01176
   for GFN1-xTB:
   * S. Grimme, C. Bannwarth, P. Shushkov, J. Chem. Theory Comput., 2017,
     13, 1989-2009. DOI: 10.1021/acs.jctc.7b00118
   for GFN0-xTB:
   * P. Pracht, E. Caldeweyher, S. Ehlert, S. Grimme, ChemRxiv, 2019, preprint.
     DOI: 10.26434/chemrxiv.8326202.v1
   for GFN-FF:
   * S. Spicher and S. Grimme, Angew. Chem. Int. Ed., 2020, 59, 15665-15673.
     DOI: 10.1002/anie.202004239
   
   for ALPB and GBSA implicit solvation:
   * S. Ehlert, M. Stahn, S. Spicher, S. Grimme, J. Chem. Theory Comput.,
     2021, 17, 4250-4261. DOI: 10.1021/acs.jctc.1c00471
   
   for ddCOSMO and CPCM-X implicit solvation:
   * M. Stahn, S. Ehlert, S. Grimme, J. Phys. Chem. A,
     2023, XX, XXXX-XXXX. DOI: 10.1021/acs.jpca.3c04382
   
   for DFT-D4:
   * E. Caldeweyher, C. Bannwarth and S. Grimme, J. Chem. Phys., 2017,
     147, 034112. DOI: 10.1063/1.4993215
   * E. Caldeweyher, S. Ehlert, A. Hansen, H. Neugebauer, S. Spicher,
     C. Bannwarth and S. Grimme, J. Chem. Phys., 2019, 150, 154122.
     DOI: 10.1063/1.5090222
   * E. Caldeweyher, J.-M. Mewes, S. Ehlert and S. Grimme, Phys. Chem. Chem. Phys.
     2020, 22, 8499-8512. DOI: 10.1039/D0CP00502A
   
   for sTDA-xTB:
   * S. Grimme and C. Bannwarth, J. Chem. Phys., 2016, 145, 054103.
     DOI: 10.1063/1.4959605
   
   in the mass-spec context:
   * V. Asgeirsson, C. Bauer and S. Grimme, Chem. Sci., 2017, 8, 4879.
     DOI: 10.1039/c7sc00601b
   * J. Koopman and S. Grimme, ACS Omega 2019, 4, 12, 15120-15133.
     DOI: 10.1021/acsomega.9b02011
   
   for metadynamics refer to:
   * S. Grimme, J. Chem. Theory Comput., 2019, 155, 2847-2862
     DOI: 10.1021/acs.jctc.9b00143
   
   for SPH calculations refer to:
   * S. Spicher and S. Grimme, J. Chem. Theory Comput., 2021, 17, 1701-1714
     DOI: 10.1021/acs.jctc.0c01306
   
   for ONIOM refer to:
   * C. Plett, A. Katbashev, S. Ehlert, S. Grimme, M. Bursch,
     Phys. Chem. Chem. Phys., 2023, 25, 17860-17868. DOI: 10.1039/D3CP02178E
   
   for DIPRO refer to:
   * J. Kohn, N. Gildemeister, S. Grimme, D. Fazzi, A. Hansen,
     J. Chem. Phys., 2023, just accepted.
   
   for PTB refer to:
   * S. Grimme, M. Mueller, A. Hansen, J. Chem. Phys., 2023, 158, 124111.
     DOI: 10.1063/5.0137838
   
   with help from (in alphabetical order)
   P. Atkinson, C. Bannwarth, F. Bohle, G. Brandenburg, E. Caldeweyher
   M. Checinski, S. Dohm, S. Ehlert, S. Ehrlich, I. Gerasimov, C. Hölzer
   A. Katbashev, J. Kohn, J. Koopman, C. Lavigne, S. Lehtola, F. März, M. Müller,
   F. Musil, H. Neugebauer, J. Pisarek, C. Plett, P. Pracht, F. Pultar,
   J. Seibert, P. Shushkov, S. Spicher, M. Stahn, M. Steiner, T. Strunk,
   J. Stückrath, T. Rose, and J. Unsleber
   
 * started run on 2026/05/23 at 08:18:01.832     
   ID    Z sym.   atoms
    1    7 N      1, 5, 10, 17, 23, 28, 35
    2    6 C      2, 3, 6-8, 11-14, 16, 20, 21, 24-26, 29, 31-34, 36-40
    3    8 O      4, 9, 15, 18, 19, 22, 27, 30
    4    1 H      41-70

           -------------------------------------------------
          |                Calculation Setup                |
           -------------------------------------------------

          program call               : /home/xchen/software/xtb-6.7.1/xtb-dist/bin/xtb /home/xchen/Test/benchmark/md_sampled/01_6_0109_n1/snap_0169.xyz --charge -1 --gfn 2 --norestart
          coordinate file            : /home/xchen/Test/benchmark/md_sampled/01_6_0109_n1/snap_0169.xyz
          omp threads                :                    48


           -------------------------------------------------
          |                 G F N 2 - x T B                 |
           -------------------------------------------------

        Reference                      10.1021/acs.jctc.8b01176
      * Hamiltonian:
        H0-scaling (s, p, d)           1.850000    2.230000    2.230000
        zeta-weighting                 0.500000
      * Dispersion:
        s8                             2.700000
        a1                             0.520000
        a2                             5.000000
        s9                             5.000000
      * Repulsion:
        kExp                           1.500000    1.000000
        rExp                           1.000000
      * Coulomb:
        alpha                          2.000000
        third order                    shell-resolved
        anisotropic                    true
        a3                             3.000000
        a5                             4.000000
        cn-shift                       1.200000
        cn-exp                         4.000000
        max-rad                        5.000000


          ...................................................
          :                      SETUP                      :
          :.................................................:
          :  # basis functions                 190          :
          :  # atomic orbitals                 190          :
          :  # shells                          110          :
          :  # electrons                       214          :
          :  max. iterations                   250          :
          :  Hamiltonian                  GFN2-xTB          :
          :  restarted?                      false          :
          :  GBSA solvation                  false          :
          :  PC potential                    false          :
          :  electronic temp.          300.0000000     K    :
          :  accuracy                    1.0000000          :
          :  -> integral cutoff          0.2500000E+02      :
          :  -> integral neglect         0.1000000E-07      :
          :  -> SCF convergence          0.1000000E-05 Eh   :
          :  -> wf. convergence          0.1000000E-03 e    :
          :  Broyden damping             0.4000000          :
          :  net charge                         -1          :
          :  unpaired electrons                  0          :
          ...................................................

 iter      E             dE          RMSdq      gap      omega  full diag
   1   -123.0635512 -0.123064E+03  0.457E+00    3.03       0.0  T
   2   -123.4001731 -0.336622E+00  0.250E+00    1.85       1.0  T
   3   -123.4207565 -0.205834E-01  0.140E+00    1.27       1.0  T
   4   -123.4089974  0.117591E-01  0.580E-01    0.28       1.0  T
   5   -123.4359096 -0.269122E-01  0.204E-01    0.86       1.0  T
   6   -123.4377655 -0.185587E-02  0.905E-02    0.74       1.0  T
   7   -123.4379259 -0.160393E-03  0.497E-02    0.73       1.0  T
   8   -123.4379611 -0.352801E-04  0.204E-02    0.72       1.0  T
   9   -123.4379666 -0.542965E-05  0.905E-03    0.73       1.3  T
  10   -123.4379681 -0.155239E-05  0.380E-03    0.73       3.1  T
  11   -123.4379687 -0.577933E-06  0.154E-03    0.73       7.8  T
  12   -123.4379688 -0.599113E-07  0.616E-04    0.73      19.4  T
  13   -123.4379688 -0.743401E-08  0.245E-04    0.73      48.7  T

   *** convergence criteria satisfied after 13 iterations ***

         #    Occupation            Energy/Eh            Energy/eV
      -------------------------------------------------------------
         1        2.0000           -0.6745039             -18.3542
       ...           ...                  ...                  ...
       101        2.0000           -0.3218964              -8.7592
       102        2.0000           -0.3213164              -8.7435
       103        2.0000           -0.3134954              -8.5306
       104        2.0000           -0.3013485              -8.2001
       105        2.0000           -0.2308630              -6.2821
       106        2.0000           -0.2221711              -6.0456
       107        2.0000           -0.2096852              -5.7058 (HOMO)
       108        0.0000           -0.1830119              -4.9800 (LUMO)
       109        0.0000           -0.1818161              -4.9475
       110                         -0.1803509              -4.9076
       111                         -0.1606267              -4.3709
       112                         -0.1593384              -4.3358
       ...                                ...                  ...
       190                          0.7697597              20.9462
      -------------------------------------------------------------
                  HL-Gap            0.0266733 Eh            0.7258 eV
             Fermi-level           -0.1964893 Eh           -5.3467 eV

 SCC (total)                   0 d,  0 h,  0 min, 12.334 sec
 SCC setup                      ...        0 min,  0.038 sec (  0.310%)
 Dispersion                     ...        0 min,  0.090 sec (  0.727%)
 classical contributions        ...        0 min,  0.009 sec (  0.070%)
 integral evaluation            ...        0 min,  0.554 sec (  4.494%)
 iterations                     ...        0 min, 11.205 sec ( 90.844%)
 molecular gradient             ...        0 min,  0.429 sec (  3.482%)
 printout                       ...        0 min,  0.009 sec (  0.071%)

         :::::::::::::::::::::::::::::::::::::::::::::::::::::
         ::                     SUMMARY                     ::
         :::::::::::::::::::::::::::::::::::::::::::::::::::::
         :: total energy            -122.022539799280 Eh    ::
         :: gradient norm              0.328235646935 Eh/a0 ::
         :: HOMO-LUMO gap              0.725817621987 eV    ::
         ::.................................................::
         :: SCC energy              -123.437230581332 Eh    ::
         :: -> isotropic ES            0.402598756233 Eh    ::
         :: -> anisotropic ES          0.010650673834 Eh    ::
         :: -> anisotropic XC          0.030504262762 Eh    ::
         :: -> dispersion             -0.079356754495 Eh    ::
         :: repulsion energy           1.414690782052 Eh    ::
         :: add. restraining           0.000000000000 Eh    ::
         :: total charge              -0.999999999998 e     ::
         :::::::::::::::::::::::::::::::::::::::::::::::::::::

           -------------------------------------------------
          |                Property Printout                |
           -------------------------------------------------

    * Orbital Energies and Occupations

         #    Occupation            Energy/Eh            Energy/eV
      -------------------------------------------------------------
         1        2.0000           -0.6745039             -18.3542
       ...           ...                  ...                  ...
        95        2.0000           -0.3432927              -9.3415
        96        2.0000           -0.3365475              -9.1579
        97        2.0000           -0.3345160              -9.1026
        98        2.0000           -0.3305387              -8.9944
        99        2.0000           -0.3237631              -8.8100
       100        2.0000           -0.3220679              -8.7639
       101        2.0000           -0.3218964              -8.7592
       102        2.0000           -0.3213164              -8.7435
       103        2.0000           -0.3134954              -8.5306
       104        2.0000           -0.3013485              -8.2001
       105        2.0000           -0.2308630              -6.2821
       106        2.0000           -0.2221711              -6.0456
       107        2.0000           -0.2096852              -5.7058 (HOMO)
       108        0.0000           -0.1830119              -4.9800 (LUMO)
       109        0.0000           -0.1818161              -4.9475
       110                         -0.1803509              -4.9076
       111                         -0.1606267              -4.3709
       112                         -0.1593384              -4.3358
       113                         -0.1541782              -4.1954
       114                         -0.1478774              -4.0239
       115                         -0.1402563              -3.8166
       116                         -0.1129959              -3.0748
       117                         -0.0478510              -1.3021
       118                         -0.0291323              -0.7927
       ...                                ...                  ...
       190                          0.7697597              20.9462
      -------------------------------------------------------------
                  HL-Gap            0.0266733 Eh            0.7258 eV
             Fermi-level           -0.1964893 Eh           -5.3467 eV

     #   Z          covCN         q      C6AA      α(0)
     1   7 N        2.678    -0.251    26.539     7.651
     2   6 C        3.718     0.007    20.581     6.480
     3   6 C        2.745     0.288    22.117     7.700
     4   8 O        0.862    -0.412    21.925     6.278
     5   7 N        2.662    -0.243    26.333     7.621
     6   6 C        3.752     0.020    20.303     6.426
     7   6 C        2.776     0.259    22.636     7.793
     8   6 C        3.782     0.035    20.008     6.372
     9   8 O        0.859    -0.466    23.050     6.437
    10   7 N        2.689    -0.161    24.493     7.350
    11   6 C        3.816    -0.054    21.527     6.603
    12   6 C        2.739     0.257    22.679     7.797
    13   6 C        3.797    -0.091    22.243     6.715
    14   6 C        3.732    -0.038    21.350     6.595
    15   8 O        0.857    -0.436    22.408     6.347
    16   6 C        2.681     0.357    20.948     7.490
    17   7 N        2.687    -0.207    25.498     7.500
    18   8 O        0.856    -0.558    25.118     6.719
    19   8 O        0.855    -0.589    25.844     6.816
    20   6 C        2.765     0.267    22.487     7.766
    21   6 C        3.796     0.021    20.235     6.405
    22   8 O        0.862    -0.417    22.028     6.293
    23   7 N        2.704    -0.188    25.083     7.438
    24   6 C        3.775    -0.121    22.852     6.811
    25   6 C        2.769     0.281    22.236     7.723
    26   6 C        3.761    -0.019    20.962     6.527
    27   8 O        0.860    -0.443    22.564     6.369
    28   7 N        2.679    -0.162    24.501     7.352
    29   6 C        2.747     0.273    22.385     7.747
    30   8 O        0.862    -0.446    22.622     6.377
    31   6 C        3.785    -0.049    21.468     6.600
    32   6 C        3.022    -0.016    28.376     8.738
    33   6 C        2.961     0.005    27.911     8.665
    34   6 C        3.046    -0.022    28.519     8.759
    35   7 N        2.725    -0.137    23.958     7.270
    36   6 C        3.012     0.038    27.139     8.546
    37   6 C        2.900    -0.046    29.142     8.851
    38   6 C        2.903    -0.041    29.026     8.834
    39   6 C        2.900    -0.044    29.099     8.845
    40   6 C        2.914    -0.047    29.178     8.858
    41   1 H        0.860     0.193     1.141     1.674
    42   1 H        0.897     0.064     2.163     2.301
    43   1 H        0.926     0.082     1.959     2.189
    44   1 H        0.861     0.176     1.236     1.742
    45   1 H        0.922     0.068     2.106     2.270
    46   1 H        0.924     0.076     2.021     2.223
    47   1 H        0.859     0.193     1.141     1.673
    48   1 H        0.928     0.040     2.455     2.450
    49   1 H        0.922     0.087     1.910     2.161
    50   1 H        0.925     0.013     2.840     2.635
    51   1 H        0.924     0.026     2.641     2.541
    52   1 H        0.928     0.082     1.960     2.189
    53   1 H        0.919     0.086     1.920     2.167
    54   1 H        0.861     0.208     1.067     1.618
    55   1 H        0.917     0.056     2.248     2.345
    56   1 H        0.861     0.190     1.156     1.684
    57   1 H        0.926     0.047     2.358     2.401
    58   1 H        0.922     0.074     2.043     2.235
    59   1 H        0.922     0.047     2.354     2.399
    60   1 H        0.925     0.057     2.235     2.338
    61   1 H        0.922     0.104     1.749     2.068
    62   1 H        0.854     0.203     1.093     1.638
    63   1 H        0.912     0.047     2.363     2.405
    64   1 H        0.923     0.065     2.147     2.291
    65   1 H        0.927     0.064     2.156     2.296
    66   1 H        0.861     0.154     1.372     1.834
    67   1 H        0.927     0.035     2.521     2.483
    68   1 H        0.919     0.004     2.991     2.705
    69   1 H        0.924     0.024     2.672     2.556
    70   1 H        0.929     0.037     2.493     2.469

 Mol. C6AA /au·bohr⁶  :      56138.598004
 Mol. C8AA /au·bohr⁸  :    1291644.293662
 Mol. α(0) /au        :        359.446787


Wiberg/Mayer (AO) data.
largest (>0.10) Wiberg bond orders for each atom

 ---------------------------------------------------------------------------
     #   Z sym  total        # sym  WBO       # sym  WBO       # sym  WBO
 ---------------------------------------------------------------------------
     1   7 N    3.277 --     7 C    1.125     2 C    0.998    41 H    0.898
                             9 O    0.145
     2   6 C    3.975 --     3 C    1.011     1 N    0.998    42 H    0.940
                            43 H    0.935
     3   6 C    3.949 --     4 O    1.736     5 N    1.141     2 C    1.011
     4   8 O    2.022 --     3 C    1.736     5 N    0.172
     5   7 N    3.302 --     3 C    1.141     6 C    0.954    44 H    0.943
                             4 O    0.172
     6   6 C    3.955 --    31 C    0.967     5 N    0.954    45 H    0.945
                            29 C    0.932
     7   6 C    3.944 --     9 O    1.653     1 N    1.125     8 C    1.028
     8   6 C    3.959 --     7 C    1.028    10 N    0.964    46 H    0.941
                            11 C    0.909
     9   8 O    1.962 --     7 C    1.653     1 N    0.145
    10   7 N    3.462 --    12 C    1.295     8 C    0.964    47 H    0.923
                            15 O    0.201
    11   6 C    3.972 --    13 C    1.016    48 H    0.979    49 H    0.957
                             8 C    0.909
    12   6 C    3.956 --    15 O    1.671    10 N    1.295    14 C    0.933
    13   6 C    3.963 --    11 C    1.016    50 H    0.961    51 H    0.958
                            16 C    0.855
    14   6 C    3.956 --    17 N    0.981    52 H    0.956    53 H    0.953
                            12 C    0.933
    15   8 O    1.993 --    12 C    1.671    10 N    0.201
    16   6 C    3.945 --    18 O    1.554    19 O    1.508    13 C    0.855
    17   7 N    3.443 --    20 C    1.277    14 C    0.981    54 H    0.903
                            22 O    0.206
    18   8 O    1.887 --    16 C    1.554    19 O    0.238
    19   8 O    1.830 --    16 C    1.508    18 O    0.238
    20   6 C    3.946 --    22 O    1.706    17 N    1.277    21 C    0.880
    21   6 C    3.965 --    24 C    1.020    23 N    0.980    55 H    0.953
                            20 C    0.880
    22   8 O    2.056 --    20 C    1.706    17 N    0.206
    23   7 N    3.403 --    25 C    1.239    21 C    0.980    56 H    0.926
                            27 O    0.172
    24   6 C    3.986 --    21 C    1.020    57 H    0.983    59 H    0.979
                            58 H    0.966
    25   6 C    3.954 --    27 O    1.660    23 N    1.239    26 C    0.979
    26   6 C    3.976 --    28 N    1.000    25 C    0.979    60 H    0.953
                            61 H    0.925
    27   8 O    2.002 --    25 C    1.660    23 N    0.172
    28   7 N    3.450 --    29 C    1.279    26 C    1.000    62 H    0.905
                            30 O    0.193
    29   6 C    3.949 --    30 O    1.668    28 N    1.279     6 C    0.932
    30   8 O    2.002 --    29 C    1.668    28 N    0.193
    31   6 C    3.982 --    32 C    1.014    64 H    0.967     6 C    0.967
                            63 H    0.965
    32   6 C    3.973 --    33 C    1.590    34 C    1.219    31 C    1.014
    33   6 C    3.947 --    32 C    1.590    35 N    1.167    65 H    0.968
    34   6 C    3.979 --    37 C    1.280    36 C    1.261    32 C    1.219
    35   7 N    3.493 --    33 C    1.167    36 C    1.150    66 H    0.951
    36   6 C    3.957 --    38 C    1.351    34 C    1.261    35 N    1.150
    37   6 C    3.988 --    39 C    1.544    34 C    1.280    67 H    0.972
                            38 C    0.102
    38   6 C    3.988 --    40 C    1.505    36 C    1.351    68 H    0.961
                            37 C    0.102
    39   6 C    3.985 --    37 C    1.544    40 C    1.334    69 H    0.970
    40   6 C    3.989 --    38 C    1.505    39 C    1.334    70 H    0.974
    41   1 H    0.963 --     1 N    0.898
    42   1 H    0.995 --     2 C    0.940
    43   1 H    0.992 --     2 C    0.935
    44   1 H    0.969 --     5 N    0.943
    45   1 H    0.995 --     6 C    0.945
    46   1 H    0.994 --     8 C    0.941
    47   1 H    0.962 --    10 N    0.923
    48   1 H    0.998 --    11 C    0.979
    49   1 H    0.992 --    11 C    0.957
    50   1 H    1.000 --    13 C    0.961
    51   1 H    0.999 --    13 C    0.958
    52   1 H    0.993 --    14 C    0.956
    53   1 H    0.992 --    14 C    0.953
    54   1 H    0.957 --    17 N    0.903
    55   1 H    0.997 --    21 C    0.953
    56   1 H    0.964 --    23 N    0.926
    57   1 H    0.997 --    24 C    0.983
    58   1 H    0.994 --    24 C    0.966
    59   1 H    0.998 --    24 C    0.979
    60   1 H    0.996 --    26 C    0.953
    61   1 H    0.989 --    26 C    0.925
    62   1 H    0.959 --    28 N    0.905
    63   1 H    0.997 --    31 C    0.965
    64   1 H    0.995 --    31 C    0.967
    65   1 H    0.995 --    33 C    0.968
    66   1 H    0.976 --    35 N    0.951
    67   1 H    0.999 --    37 C    0.972
    68   1 H    0.999 --    38 C    0.961
    69   1 H    0.999 --    39 C    0.970
    70   1 H    0.998 --    40 C    0.974
 ---------------------------------------------------------------------------

Topologies differ in total number of bonds
Writing topology from bond orders to xtbtopo.mol

molecular dipole:
                 x           y           z       tot (Debye)
 q only:        3.013       9.371       8.065
   full:        2.810       9.621       8.047      32.670
molecular quadrupole (traceless):
                xx          xy          yy          xz          yz          zz
 q only:       47.951     -57.862     -40.826     -47.639    -132.996      -7.125
  q+dip:       36.943     -59.461     -38.049     -49.927    -139.222       1.107
   full:       39.424     -59.798     -40.291     -51.184    -138.898       0.868


           -------------------------------------------------
          | TOTAL ENERGY             -122.022539799280 Eh   |
          | GRADIENT NORM               0.328235646935 Eh/α |
          | HOMO-LUMO GAP               0.725817621987 eV   |
           -------------------------------------------------

------------------------------------------------------------------------
 * finished run on 2026/05/23 at 08:18:14.849     
------------------------------------------------------------------------
 total:
 * wall-time:     0 d,  0 h,  0 min, 13.016 sec
 *  cpu-time:     0 d,  0 h,  0 min, 16.182 sec
 * ratio c/w:     1.243 speedup
 SCF:
 * wall-time:     0 d,  0 h,  0 min, 12.335 sec
 *  cpu-time:     0 d,  0 h,  0 min, 15.638 sec
 * ratio c/w:     1.268 speedup

normal termination of xtb
