      -----------------------------------------------------------      
     |                   =====================                   |     
     |                           x T B                           |     
     |                   =====================                   |     
     |                         S. Grimme                         |     
     |          Mulliken Center for Theoretical Chemistry        |     
     |                    University of Bonn                     |     
      -----------------------------------------------------------      

   * xtb version 6.7.1 (edcfbbe) compiled by 'albert@albert-system' on 2024-07-22

   xtb is free software: you can redistribute it and/or modify it under
   the terms of the GNU Lesser General Public License as published by
   the Free Software Foundation, either version 3 of the License, or
   (at your option) any later version.
   
   xtb is distributed in the hope that it will be useful,
   but WITHOUT ANY WARRANTY; without even the implied warranty of
   MERCHANTABILITY or FITNESS FOR A PARTICULAR PURPOSE.  See the
   GNU Lesser General Public License for more details.
   
   Cite this work as:
   * C. Bannwarth, E. Caldeweyher, S. Ehlert, A. Hansen, P. Pracht,
     J. Seibert, S. Spicher, S. Grimme, WIREs Comput. Mol. Sci., 2020, 11,
     e01493. DOI: 10.1002/wcms.1493
   
   for GFN2-xTB:
   * C. Bannwarth, S. Ehlert and S. Grimme., J. Chem. Theory Comput., 2019,
     15, 1652-1671. DOI: 10.1021/acs.jctc.8b01176
   for GFN1-xTB:
   * S. Grimme, C. Bannwarth, P. Shushkov, J. Chem. Theory Comput., 2017,
     13, 1989-2009. DOI: 10.1021/acs.jctc.7b00118
   for GFN0-xTB:
   * P. Pracht, E. Caldeweyher, S. Ehlert, S. Grimme, ChemRxiv, 2019, preprint.
     DOI: 10.26434/chemrxiv.8326202.v1
   for GFN-FF:
   * S. Spicher and S. Grimme, Angew. Chem. Int. Ed., 2020, 59, 15665-15673.
     DOI: 10.1002/anie.202004239
   
   for ALPB and GBSA implicit solvation:
   * S. Ehlert, M. Stahn, S. Spicher, S. Grimme, J. Chem. Theory Comput.,
     2021, 17, 4250-4261. DOI: 10.1021/acs.jctc.1c00471
   
   for ddCOSMO and CPCM-X implicit solvation:
   * M. Stahn, S. Ehlert, S. Grimme, J. Phys. Chem. A,
     2023, XX, XXXX-XXXX. DOI: 10.1021/acs.jpca.3c04382
   
   for DFT-D4:
   * E. Caldeweyher, C. Bannwarth and S. Grimme, J. Chem. Phys., 2017,
     147, 034112. DOI: 10.1063/1.4993215
   * E. Caldeweyher, S. Ehlert, A. Hansen, H. Neugebauer, S. Spicher,
     C. Bannwarth and S. Grimme, J. Chem. Phys., 2019, 150, 154122.
     DOI: 10.1063/1.5090222
   * E. Caldeweyher, J.-M. Mewes, S. Ehlert and S. Grimme, Phys. Chem. Chem. Phys.
     2020, 22, 8499-8512. DOI: 10.1039/D0CP00502A
   
   for sTDA-xTB:
   * S. Grimme and C. Bannwarth, J. Chem. Phys., 2016, 145, 054103.
     DOI: 10.1063/1.4959605
   
   in the mass-spec context:
   * V. Asgeirsson, C. Bauer and S. Grimme, Chem. Sci., 2017, 8, 4879.
     DOI: 10.1039/c7sc00601b
   * J. Koopman and S. Grimme, ACS Omega 2019, 4, 12, 15120-15133.
     DOI: 10.1021/acsomega.9b02011
   
   for metadynamics refer to:
   * S. Grimme, J. Chem. Theory Comput., 2019, 155, 2847-2862
     DOI: 10.1021/acs.jctc.9b00143
   
   for SPH calculations refer to:
   * S. Spicher and S. Grimme, J. Chem. Theory Comput., 2021, 17, 1701-1714
     DOI: 10.1021/acs.jctc.0c01306
   
   for ONIOM refer to:
   * C. Plett, A. Katbashev, S. Ehlert, S. Grimme, M. Bursch,
     Phys. Chem. Chem. Phys., 2023, 25, 17860-17868. DOI: 10.1039/D3CP02178E
   
   for DIPRO refer to:
   * J. Kohn, N. Gildemeister, S. Grimme, D. Fazzi, A. Hansen,
     J. Chem. Phys., 2023, just accepted.
   
   for PTB refer to:
   * S. Grimme, M. Mueller, A. Hansen, J. Chem. Phys., 2023, 158, 124111.
     DOI: 10.1063/5.0137838
   
   with help from (in alphabetical order)
   P. Atkinson, C. Bannwarth, F. Bohle, G. Brandenburg, E. Caldeweyher
   M. Checinski, S. Dohm, S. Ehlert, S. Ehrlich, I. Gerasimov, C. Hölzer
   A. Katbashev, J. Kohn, J. Koopman, C. Lavigne, S. Lehtola, F. März, M. Müller,
   F. Musil, H. Neugebauer, J. Pisarek, C. Plett, P. Pracht, F. Pultar,
   J. Seibert, P. Shushkov, S. Spicher, M. Stahn, M. Steiner, T. Strunk,
   J. Stückrath, T. Rose, and J. Unsleber
   
 * started run on 2026/05/23 at 12:51:41.297     
   ID    Z sym.   atoms
    1    7 N      1, 5, 10, 18, 28, 30, 37-39, 41, 47, 48, 56
    2    6 C      2, 3, 6-8, 11-14, 16, 17, 19-25, 27, 29, 31-34, 36, 40,
                  42-45, 49, 51-55
    3    8 O      4, 9, 15, 26, 35, 46, 50
    4    1 H      57-115

           -------------------------------------------------
          |                Calculation Setup                |
           -------------------------------------------------

          program call               : /home/xchen/software/xtb-6.7.1/xtb-dist/bin/xtb /home/xchen/Test/benchmark/md_sampled/03_6_0978_0/snap_0138.xyz --charge 0 --gfn 2 --norestart
          coordinate file            : /home/xchen/Test/benchmark/md_sampled/03_6_0978_0/snap_0138.xyz
          omp threads                :                    48


           -------------------------------------------------
          |                 G F N 2 - x T B                 |
           -------------------------------------------------

        Reference                      10.1021/acs.jctc.8b01176
      * Hamiltonian:
        H0-scaling (s, p, d)           1.850000    2.230000    2.230000
        zeta-weighting                 0.500000
      * Dispersion:
        s8                             2.700000
        a1                             0.520000
        a2                             5.000000
        s9                             5.000000
      * Repulsion:
        kExp                           1.500000    1.000000
        rExp                           1.000000
      * Coulomb:
        alpha                          2.000000
        third order                    shell-resolved
        anisotropic                    true
        a3                             3.000000
        a5                             4.000000
        cn-shift                       1.200000
        cn-exp                         4.000000
        max-rad                        5.000000


          ...................................................
          :                      SETUP                      :
          :.................................................:
          :  # basis functions                 283          :
          :  # atomic orbitals                 283          :
          :  # shells                          171          :
          :  # electrons                       310          :
          :  max. iterations                   250          :
          :  Hamiltonian                  GFN2-xTB          :
          :  restarted?                      false          :
          :  GBSA solvation                  false          :
          :  PC potential                    false          :
          :  electronic temp.          300.0000000     K    :
          :  accuracy                    1.0000000          :
          :  -> integral cutoff          0.2500000E+02      :
          :  -> integral neglect         0.1000000E-07      :
          :  -> SCF convergence          0.1000000E-05 Eh   :
          :  -> wf. convergence          0.1000000E-03 e    :
          :  Broyden damping             0.4000000          :
          :  net charge                          0          :
          :  unpaired electrons                  0          :
          ...................................................

 iter      E             dE          RMSdq      gap      omega  full diag
   1   -175.2237951 -0.175224E+03  0.385E+00    3.04       0.0  T
   2   -175.5942632 -0.370468E+00  0.214E+00    1.94       1.0  T
   3   -175.6142336 -0.199704E-01  0.114E+00    2.22       1.0  T
   4   -175.6203922 -0.615855E-02  0.228E-01    1.72       1.0  T
   5   -175.6247616 -0.436944E-02  0.953E-02    1.81       1.0  T
   6   -175.6250436 -0.282027E-03  0.460E-02    1.80       1.0  T
   7   -175.6251215 -0.779205E-04  0.208E-02    1.81       1.0  T
   8   -175.6251377 -0.161671E-04  0.598E-03    1.81       1.6  T
   9   -175.6251384 -0.699651E-06  0.245E-03    1.81       3.8  T
  10   -175.6251385 -0.117721E-06  0.108E-03    1.81       8.6  T
  11   -175.6251386 -0.307785E-07  0.395E-04    1.81      23.6  T
  12   -175.6251386 -0.494811E-08  0.133E-04    1.81      70.0  T

   *** convergence criteria satisfied after 12 iterations ***

         #    Occupation            Energy/Eh            Energy/eV
      -------------------------------------------------------------
         1        2.0000           -0.7458463             -20.2955
       ...           ...                  ...                  ...
       149        2.0000           -0.3830783             -10.4241
       150        2.0000           -0.3757291             -10.2241
       151        2.0000           -0.3680880             -10.0162
       152        2.0000           -0.3641833              -9.9099
       153        2.0000           -0.3512021              -9.5567
       154        2.0000           -0.3459856              -9.4147
       155        2.0000           -0.3426065              -9.3228 (HOMO)
       156                         -0.2761127              -7.5134 (LUMO)
       157                         -0.2613609              -7.1120
       158                         -0.2529652              -6.8835
       159                         -0.2462888              -6.7019
       160                         -0.2446650              -6.6577
       ...                                ...                  ...
       283                          0.6703041              18.2399
      -------------------------------------------------------------
                  HL-Gap            0.0664938 Eh            1.8094 eV
             Fermi-level           -0.3093596 Eh           -8.4181 eV

 SCC (total)                   0 d,  0 h,  0 min, 16.126 sec
 SCC setup                      ...        0 min,  0.028 sec (  0.171%)
 Dispersion                     ...        0 min,  0.116 sec (  0.717%)
 classical contributions        ...        0 min,  0.006 sec (  0.037%)
 integral evaluation            ...        0 min,  0.458 sec (  2.843%)
 iterations                     ...        0 min, 14.878 sec ( 92.263%)
 molecular gradient             ...        0 min,  0.623 sec (  3.861%)
 printout                       ...        0 min,  0.017 sec (  0.105%)

         :::::::::::::::::::::::::::::::::::::::::::::::::::::
         ::                     SUMMARY                     ::
         :::::::::::::::::::::::::::::::::::::::::::::::::::::
         :: total energy            -173.495018114377 Eh    ::
         :: gradient norm              0.388537288614 Eh/a0 ::
         :: HOMO-LUMO gap              1.809387188942 eV    ::
         ::.................................................::
         :: SCC energy              -175.618936714087 Eh    ::
         :: -> isotropic ES            0.333274810482 Eh    ::
         :: -> anisotropic ES          0.022422357639 Eh    ::
         :: -> anisotropic XC          0.075327489062 Eh    ::
         :: -> dispersion             -0.136042003389 Eh    ::
         :: repulsion energy           2.123918599710 Eh    ::
         :: add. restraining           0.000000000000 Eh    ::
         :: total charge               0.000000000000 e     ::
         :::::::::::::::::::::::::::::::::::::::::::::::::::::

           -------------------------------------------------
          |                Property Printout                |
           -------------------------------------------------

    * Orbital Energies and Occupations

         #    Occupation            Energy/Eh            Energy/eV
      -------------------------------------------------------------
         1        2.0000           -0.7458463             -20.2955
       ...           ...                  ...                  ...
       143        2.0000           -0.4133711             -11.2484
       144        2.0000           -0.4126711             -11.2294
       145        2.0000           -0.4110225             -11.1845
       146        2.0000           -0.4011992             -10.9172
       147        2.0000           -0.3954792             -10.7615
       148        2.0000           -0.3885165             -10.5721
       149        2.0000           -0.3830783             -10.4241
       150        2.0000           -0.3757291             -10.2241
       151        2.0000           -0.3680880             -10.0162
       152        2.0000           -0.3641833              -9.9099
       153        2.0000           -0.3512021              -9.5567
       154        2.0000           -0.3459856              -9.4147
       155        2.0000           -0.3426065              -9.3228 (HOMO)
       156                         -0.2761127              -7.5134 (LUMO)
       157                         -0.2613609              -7.1120
       158                         -0.2529652              -6.8835
       159                         -0.2462888              -6.7019
       160                         -0.2446650              -6.6577
       161                         -0.2409148              -6.5556
       162                         -0.2323850              -6.3235
       163                         -0.2207917              -6.0080
       164                         -0.1712864              -4.6609
       165                         -0.1528319              -4.1588
       166                         -0.1291106              -3.5133
       ...                                ...                  ...
       283                          0.6703041              18.2399
      -------------------------------------------------------------
                  HL-Gap            0.0664938 Eh            1.8094 eV
             Fermi-level           -0.3093596 Eh           -8.4181 eV

     #   Z          covCN         q      C6AA      α(0)
     1   7 N        2.685    -0.184    24.992     7.425
     2   6 C        3.834     0.022    20.185     6.392
     3   6 C        2.749     0.242    22.954     7.845
     4   8 O        0.856    -0.467    23.075     6.440
     5   7 N        2.698    -0.167    24.619     7.369
     6   6 C        3.773     0.021    20.259     6.414
     7   6 C        2.783     0.252    22.775     7.817
     8   6 C        3.787     0.022    20.217     6.404
     9   8 O        0.856    -0.451    22.725     6.391
    10   7 N        2.684    -0.213    25.651     7.522
    11   6 C        3.813    -0.072    21.859     6.655
    12   6 C        2.752     0.261    22.606     7.786
    13   6 C        2.953    -0.005    28.150     8.702
    14   6 C        3.779     0.025    20.176     6.399
    15   8 O        0.860    -0.428    22.253     6.325
    16   6 C        2.965    -0.046    29.136     8.854
    17   6 C        2.958    -0.042    29.037     8.839
    18   7 N        2.674    -0.194    25.213     7.458
    19   6 C        3.776    -0.061    21.707     6.638
    20   6 C        2.906    -0.038    28.956     8.823
    21   6 C        2.905    -0.028    28.711     8.786
    22   6 C        2.748     0.266    22.513     7.769
    23   6 C        3.785    -0.075    21.959     6.675
    24   6 C        2.919    -0.027    28.677     8.782
    25   6 C        3.763     0.009    20.460     6.448
    26   8 O        0.858    -0.410    21.877     6.271
    27   6 C        3.727     0.005    20.602     6.480
    28   7 N        2.685    -0.208    25.537     7.505
    29   6 C        3.780    -0.070    21.860     6.661
    30   7 N        2.686    -0.211    25.603     7.515
    31   6 C        2.742     0.287    22.134     7.703
    32   6 C        3.787    -0.066    21.782     6.647
    33   6 C        2.733     0.236    23.063     7.863
    34   6 C        3.828     0.024    20.143     6.386
    35   8 O        0.857    -0.410    21.879     6.271
    36   6 C        3.729     0.010    20.512     6.465
    37   7 N        1.787    -0.413    31.691     8.338
    38   7 N        2.661    -0.348    28.950     7.991
    39   7 N        2.748    -0.084    22.870     7.103
    40   6 C        3.804    -0.068    21.798     6.647
    41   7 N        2.688    -0.251    26.516     7.648
    42   6 C        3.778    -0.003    20.652     6.474
    43   6 C        2.760     0.263    22.569     7.780
    44   6 C        3.824    -0.065    21.718     6.632
    45   6 C        2.730     0.233    23.121     7.872
    46   8 O        0.857    -0.422    22.127     6.307
    47   7 N        1.783    -0.425    32.059     8.386
    48   7 N        2.638    -0.301    27.762     7.825
    49   6 C        3.735     0.121    18.686     6.169
    50   8 O        1.660    -0.441    21.663     6.283
    51   6 C        3.740    -0.129    23.050     6.850
    52   6 C        3.793    -0.065    21.752     6.642
    53   6 C        3.787    -0.063    21.721     6.638
    54   6 C        3.785    -0.072    21.890     6.664
    55   6 C        3.741     0.015    20.398     6.444
    56   7 N        2.628    -0.344    28.849     7.977
    57   1 H        0.858     0.195     1.130     1.666
    58   1 H        0.926     0.103     1.762     2.075
    59   1 H        0.862     0.189     1.161     1.688
    60   1 H        0.921     0.077     2.015     2.220
    61   1 H        0.924     0.075     2.029     2.228
    62   1 H        0.861     0.214     1.037     1.595
    63   1 H        0.929     0.062     2.181     2.309
    64   1 H        0.927     0.096     1.823     2.111
    65   1 H        0.927     0.073     2.057     2.243
    66   1 H        0.926     0.018     2.758     2.597
    67   1 H        0.928     0.036     2.508     2.476
    68   1 H        0.848     0.181     1.209     1.723
    69   1 H        0.923     0.056     2.248     2.345
    70   1 H        0.918     0.045     2.384     2.415
    71   1 H        0.928     0.046     2.373     2.409
    72   1 H        0.927     0.066     2.125     2.280
    73   1 H        0.927     0.070     2.087     2.259
    74   1 H        0.928     0.052     2.299     2.371
    75   1 H        0.909     0.021     2.723     2.581
    76   1 H        0.918     0.080     1.976     2.198
    77   1 H        0.918     0.037     2.490     2.468
    78   1 H        0.928     0.063     2.165     2.301
    79   1 H        0.862     0.178     1.223     1.733
    80   1 H        0.922     0.049     2.330     2.387
    81   1 H        0.916     0.051     2.312     2.378
    82   1 H        0.860     0.170     1.272     1.767
    83   1 H        0.927     0.069     2.097     2.264
    84   1 H        0.925     0.059     2.216     2.328
    85   1 H        0.916     0.035     2.519     2.482
    86   1 H        0.922     0.057     2.240     2.341
    87   1 H        0.923     0.039     2.456     2.451
    88   1 H        0.857     0.117     1.651     2.013
    89   1 H        0.860     0.149     1.406     1.857
    90   1 H        0.861     0.174     1.248     1.750
    91   1 H        0.925     0.065     2.138     2.287
    92   1 H        0.929     0.056     2.248     2.345
    93   1 H        0.861     0.144     1.442     1.881
    94   1 H        0.926     0.067     2.116     2.275
    95   1 H        0.924     0.055     2.255     2.348
    96   1 H        0.929     0.062     2.173     2.305
    97   1 H        0.914     0.028     2.617     2.530
    98   1 H        0.860     0.131     1.540     1.944
    99   1 H        0.857     0.151     1.394     1.850
   100   1 H        0.861     0.179     1.221     1.731
   101   1 H        0.924     0.038     2.474     2.460
   102   1 H        0.806     0.333     0.629     1.246
   103   1 H        0.914     0.050     2.318     2.382
   104   1 H        0.923     0.060     2.200     2.319
   105   1 H        0.922     0.030     2.583     2.513
   106   1 H        0.917     0.030     2.594     2.519
   107   1 H        0.928     0.054     2.272     2.357
   108   1 H        0.924     0.050     2.321     2.383
   109   1 H        0.928     0.049     2.338     2.391
   110   1 H        0.920     0.044     2.396     2.421
   111   1 H        0.924     0.034     2.530     2.488
   112   1 H        0.928     0.042     2.419     2.432
   113   1 H        0.928     0.044     2.391     2.418
   114   1 H        0.860     0.125     1.581     1.970
   115   1 H        0.860     0.133     1.523     1.933

 Mol. C6AA /au·bohr⁶  :     125337.697002
 Mol. C8AA /au·bohr⁸  :    2793994.676601
 Mol. α(0) /au        :        533.429169


Wiberg/Mayer (AO) data.
largest (>0.10) Wiberg bond orders for each atom

 ---------------------------------------------------------------------------
     #   Z sym  total        # sym  WBO       # sym  WBO       # sym  WBO
 ---------------------------------------------------------------------------
     1   7 N    3.454 --     7 C    1.271     2 C    0.991    57 H    0.916
                             9 O    0.186
     2   6 C    3.954 --     1 N    0.991    49 C    0.967     3 C    0.936
                            58 H    0.920
     3   6 C    3.948 --     4 O    1.615     5 N    1.274     2 C    0.936
     4   8 O    1.972 --     3 C    1.615     5 N    0.186
     5   7 N    3.461 --     3 C    1.274     6 C    0.973    59 H    0.928
                             4 O    0.186
     6   6 C    3.946 --    52 C    0.981     5 N    0.973    60 H    0.949
                            43 C    0.894
     7   6 C    3.949 --     9 O    1.640     1 N    1.271     8 C    0.952
     8   6 C    3.967 --    11 C    0.977    10 N    0.961     7 C    0.952
                            61 H    0.933
     9   8 O    2.004 --     7 C    1.640     1 N    0.186
    10   7 N    3.395 --    12 C    1.254     8 C    0.961    62 H    0.892
                            15 O    0.185
    11   6 C    3.988 --    13 C    1.012     8 C    0.977    63 H    0.969
                            64 H    0.948
    12   6 C    3.945 --    15 O    1.701    10 N    1.254    14 C    0.923
    13   6 C    3.987 --    16 C    1.486    17 C    1.326    11 C    1.012
                            24 C    0.109
    14   6 C    3.966 --    19 C    0.987    18 N    0.980    65 H    0.937
                            12 C    0.923
    15   8 O    2.010 --    12 C    1.701    10 N    0.185
    16   6 C    3.991 --    13 C    1.486    20 C    1.367    66 H    0.968
                            21 C    0.101
    17   6 C    3.991 --    21 C    1.518    13 C    1.326    67 H    0.969
                            20 C    0.115
    18   7 N    3.412 --    22 C    1.235    14 C    0.980    68 H    0.913
                            26 O    0.197
    19   6 C    3.985 --    14 C    0.987    23 C    0.980    69 H    0.978
                            70 H    0.978
    20   6 C    3.987 --    24 C    1.504    16 C    1.367    71 H    0.970
                            17 C    0.115
    21   6 C    3.988 --    17 C    1.518    24 C    1.365    72 H    0.968
                            16 C    0.101
    22   6 C    3.949 --    26 O    1.716    18 N    1.235    25 C    0.930
    23   6 C    3.986 --    27 C    1.006    19 C    0.980    74 H    0.977
                            73 H    0.975
    24   6 C    3.987 --    20 C    1.504    21 C    1.365    75 H    0.965
                            13 C    0.109
    25   6 C    3.956 --    29 C    1.004    76 H    0.949    28 N    0.937
                            22 C    0.930
    26   8 O    2.031 --    22 C    1.716    18 N    0.197
    27   6 C    3.973 --    23 C    1.006    78 H    0.976    30 N    0.976
                            77 H    0.967
    28   7 N    3.387 --    31 C    1.229    25 C    0.937    79 H    0.935
                            35 O    0.192
    29   6 C    3.988 --    25 C    1.004    32 C    0.981    80 H    0.973
                            81 H    0.970
    30   7 N    3.343 --    33 C    1.185    27 C    0.976    82 H    0.940
                            37 N    0.165
    31   6 C    3.951 --    35 O    1.715    28 N    1.229    34 C    0.939
    32   6 C    3.990 --    36 C    1.010    29 C    0.981    83 H    0.979
                            84 H    0.977
    33   6 C    3.960 --    37 N    1.703    30 N    1.185    38 N    1.050
    34   6 C    3.971 --    39 N    0.990    40 C    0.957    85 H    0.949
                            31 C    0.939
    35   8 O    2.027 --    31 C    1.715    28 N    0.192
    36   6 C    3.970 --    32 C    1.010    41 N    0.975    87 H    0.973
                            86 H    0.957
    37   7 N    2.938 --    33 C    1.703    88 H    0.944    30 N    0.165
    38   7 N    3.111 --    33 C    1.050    90 H    0.953    89 H    0.951
    39   7 N    3.491 --    43 C    1.231    34 C    0.990    42 C    0.988
                            46 O    0.193
    40   6 C    3.989 --    44 C    1.005    92 H    0.983    91 H    0.978
                            34 C    0.957
    41   7 N    3.294 --    45 C    1.126    36 C    0.975    93 H    0.950
                            47 N    0.163
    42   6 C    3.969 --    44 C    1.004    39 N    0.988    94 H    0.963
                            95 H    0.960
    43   6 C    3.945 --    46 O    1.703    39 N    1.231     6 C    0.894
    44   6 C    3.987 --    40 C    1.005    42 C    1.004    97 H    0.975
                            96 H    0.973
    45   6 C    3.961 --    47 N    1.702    41 N    1.126    48 N    1.109
    46   8 O    2.043 --    43 C    1.703    39 N    0.193
    47   7 N    2.962 --    45 C    1.702    98 H    0.940    41 N    0.163
                            48 N    0.105
    48   7 N    3.201 --    45 C    1.109    99 H    0.956   100 H    0.954
                            47 N    0.105
    49   6 C    3.969 --    50 O    1.032    51 C    0.975     2 C    0.967
                           101 H    0.957
    50   8 O    1.973 --    49 C    1.032   102 H    0.834
    51   6 C    3.993 --   103 H    0.988   105 H    0.984   104 H    0.983
                            49 C    0.975
    52   6 C    3.979 --    53 C    1.005     6 C    0.981   106 H    0.970
                           107 H    0.968
    53   6 C    3.987 --    52 C    1.005    54 C    0.989   108 H    0.978
                           109 H    0.969
    54   6 C    3.994 --    55 C    1.006    53 C    0.989   110 H    0.976
                           111 H    0.971
    55   6 C    3.985 --    56 N    1.016    54 C    1.006   112 H    0.975
                           113 H    0.974
    56   7 N    3.003 --    55 C    1.016   114 H    0.974   115 H    0.959
    57   1 H    0.962 --     1 N    0.916
    58   1 H    0.989 --     2 C    0.920
    59   1 H    0.964 --     5 N    0.928
    60   1 H    0.994 --     6 C    0.949
    61   1 H    0.993 --     8 C    0.933
    62   1 H    0.954 --    10 N    0.892
    63   1 H    0.995 --    11 C    0.969
    64   1 H    0.991 --    11 C    0.948
    65   1 H    0.994 --    14 C    0.937
    66   1 H    1.000 --    16 C    0.968
    67   1 H    0.999 --    17 C    0.969
    68   1 H    0.967 --    18 N    0.913
    69   1 H    0.996 --    19 C    0.978
    70   1 H    0.998 --    19 C    0.978
    71   1 H    0.998 --    20 C    0.970
    72   1 H    0.995 --    21 C    0.968
    73   1 H    0.995 --    23 C    0.975
    74   1 H    0.997 --    23 C    0.977
    75   1 H    0.999 --    24 C    0.965
    76   1 H    0.993 --    25 C    0.949
    77   1 H    0.998 --    27 C    0.967
    78   1 H    0.996 --    27 C    0.976
    79   1 H    0.968 --    28 N    0.935
    80   1 H    0.997 --    29 C    0.973
    81   1 H    0.997 --    29 C    0.970
    82   1 H    0.971 --    30 N    0.940
    83   1 H    0.995 --    32 C    0.979
    84   1 H    0.996 --    32 C    0.977
    85   1 H    0.999 --    34 C    0.949
    86   1 H    0.997 --    36 C    0.957
    87   1 H    0.998 --    36 C    0.973
    88   1 H    0.986 --    37 N    0.944
    89   1 H    0.978 --    38 N    0.951
    90   1 H    0.969 --    38 N    0.953
    91   1 H    0.996 --    40 C    0.978
    92   1 H    0.997 --    40 C    0.983
    93   1 H    0.979 --    41 N    0.950
    94   1 H    0.995 --    42 C    0.963
    95   1 H    0.997 --    42 C    0.960
    96   1 H    0.995 --    44 C    0.973
    97   1 H    0.999 --    44 C    0.975
    98   1 H    0.983 --    47 N    0.940
    99   1 H    0.977 --    48 N    0.956
   100   1 H    0.968 --    48 N    0.954
   101   1 H    0.998 --    49 C    0.957
   102   1 H    0.889 --    50 O    0.834
   103   1 H    0.997 --    51 C    0.988
   104   1 H    0.996 --    51 C    0.983
   105   1 H    0.999 --    51 C    0.984
   106   1 H    0.999 --    52 C    0.970
   107   1 H    0.997 --    52 C    0.968
   108   1 H    0.997 --    53 C    0.978
   109   1 H    0.997 --    53 C    0.969
   110   1 H    0.998 --    54 C    0.976
   111   1 H    0.999 --    54 C    0.971
   112   1 H    0.998 --    55 C    0.975
   113   1 H    0.998 --    55 C    0.974
   114   1 H    0.984 --    56 N    0.974
   115   1 H    0.982 --    56 N    0.959
 ---------------------------------------------------------------------------

Topologies differ in total number of bonds
Writing topology from bond orders to xtbtopo.mol

molecular dipole:
                 x           y           z       tot (Debye)
 q only:        2.658      -1.987      -0.440
   full:        3.084      -2.469      -0.163      10.051
molecular quadrupole (traceless):
                xx          xy          yy          xz          yz          zz
 q only:      -47.339      28.983      17.871      -7.770      12.498      29.469
  q+dip:      -65.173      30.226      28.495     -15.818      21.189      36.679
   full:      -66.587      31.273      26.612     -14.332      21.560      39.975


           -------------------------------------------------
          | TOTAL ENERGY             -173.495018114377 Eh   |
          | GRADIENT NORM               0.388537288614 Eh/α |
          | HOMO-LUMO GAP               1.809387188942 eV   |
           -------------------------------------------------

------------------------------------------------------------------------
 * finished run on 2026/05/23 at 12:51:58.312     
------------------------------------------------------------------------
 total:
 * wall-time:     0 d,  0 h,  0 min, 17.013 sec
 *  cpu-time:     0 d,  0 h,  0 min, 30.168 sec
 * ratio c/w:     1.773 speedup
 SCF:
 * wall-time:     0 d,  0 h,  0 min, 16.127 sec
 *  cpu-time:     0 d,  0 h,  0 min, 28.629 sec
 * ratio c/w:     1.775 speedup

normal termination of xtb
