      -----------------------------------------------------------      
     |                   =====================                   |     
     |                           x T B                           |     
     |                   =====================                   |     
     |                         S. Grimme                         |     
     |          Mulliken Center for Theoretical Chemistry        |     
     |                    University of Bonn                     |     
      -----------------------------------------------------------      

   * xtb version 6.7.1 (26dd68d) compiled by 'froitzheim@fs7' on 2026-05-14

   xtb is free software: you can redistribute it and/or modify it under
   the terms of the GNU Lesser General Public License as published by
   the Free Software Foundation, either version 3 of the License, or
   (at your option) any later version.
   
   xtb is distributed in the hope that it will be useful,
   but WITHOUT ANY WARRANTY; without even the implied warranty of
   MERCHANTABILITY or FITNESS FOR A PARTICULAR PURPOSE.  See the
   GNU Lesser General Public License for more details.
   
   Cite this work as:
   * C. Bannwarth, E. Caldeweyher, S. Ehlert, A. Hansen, P. Pracht,
     J. Seibert, S. Spicher, S. Grimme, WIREs Comput. Mol. Sci., 2020, 11,
     e01493. DOI: 10.1002/wcms.1493
   
   for g-xTB:
   * T. Froitzheim, M. Müller, A. Hansen, S. Grimme, ChemRxiv, 2025, preprint.
     DOI: 10.26434/chemrxiv-2025-bjxv
   for GFN2-xTB:
   * C. Bannwarth, S. Ehlert and S. Grimme., J. Chem. Theory Comput., 2019,
     15, 1652-1671. DOI: 10.1021/acs.jctc.8b01176
   for GFN1-xTB:
   * S. Grimme, C. Bannwarth, P. Shushkov, J. Chem. Theory Comput., 2017,
     13, 1989-2009. DOI: 10.1021/acs.jctc.7b00118
   for GFN0-xTB:
   * P. Pracht, E. Caldeweyher, S. Ehlert, S. Grimme, ChemRxiv, 2019, preprint.
     DOI: 10.26434/chemrxiv.8326202.v1
   for GFN-FF:
   * S. Spicher and S. Grimme, Angew. Chem. Int. Ed., 2020, 59, 15665-15673.
     DOI: 10.1002/anie.202004239
   
   for ALPB and GBSA implicit solvation:
   * S. Ehlert, M. Stahn, S. Spicher, S. Grimme, J. Chem. Theory Comput.,
     2021, 17, 4250-4261. DOI: 10.1021/acs.jctc.1c00471
   
   for ddCOSMO and CPCM-X implicit solvation:
   * M. Stahn, S. Ehlert, S. Grimme, J. Phys. Chem. A,
     2023, XX, XXXX-XXXX. DOI: 10.1021/acs.jpca.3c04382
   
   for DFT-D4:
   * E. Caldeweyher, C. Bannwarth and S. Grimme, J. Chem. Phys., 2017,
     147, 034112. DOI: 10.1063/1.4993215
   * E. Caldeweyher, S. Ehlert, A. Hansen, H. Neugebauer, S. Spicher,
     C. Bannwarth and S. Grimme, J. Chem. Phys., 2019, 150, 154122.
     DOI: 10.1063/1.5090222
   * E. Caldeweyher, J.-M. Mewes, S. Ehlert and S. Grimme, Phys. Chem. Chem. Phys.
     2020, 22, 8499-8512. DOI: 10.1039/D0CP00502A
   
   for sTDA-xTB:
   * S. Grimme and C. Bannwarth, J. Chem. Phys., 2016, 145, 054103.
     DOI: 10.1063/1.4959605
   
   in the mass-spec context:
   * V. Asgeirsson, C. Bauer and S. Grimme, Chem. Sci., 2017, 8, 4879.
     DOI: 10.1039/c7sc00601b
   * J. Koopman and S. Grimme, ACS Omega 2019, 4, 12, 15120-15133.
     DOI: 10.1021/acsomega.9b02011
   
   for metadynamics refer to:
   * S. Grimme, J. Chem. Theory Comput., 2019, 155, 2847-2862
     DOI: 10.1021/acs.jctc.9b00143
   
   for SPH calculations refer to:
   * S. Spicher and S. Grimme, J. Chem. Theory Comput., 2021, 17, 1701-1714
     DOI: 10.1021/acs.jctc.0c01306
   
   for ONIOM refer to:
   * C. Plett, A. Katbashev, S. Ehlert, S. Grimme, M. Bursch,
     Phys. Chem. Chem. Phys., 2023, 25, 17860-17868. DOI: 10.1039/D3CP02178E
   
   for DIPRO refer to:
   * J. Kohn, N. Gildemeister, S. Grimme, D. Fazzi, A. Hansen,
     J. Chem. Phys. 159, 144106 (2023). DOI: 10.1063/5.0167484
   
   for PTB refer to:
   * S. Grimme, M. Mueller, A. Hansen, J. Chem. Phys., 2023, 158, 124111.
     DOI: 10.1063/5.0137838
   
   with help from (in alphabetical order)
   P. Atkinson, C. Bannwarth, F. Bohle, G. Brandenburg, E. Caldeweyher,
   M. Checinski, S. Dohm, S. Ehlert, S. Ehrlich, M. Friede, T. Froitzheim,
   I. Gerasimov, C. Hölzer, A. Katbashev, J. Kohn, J. Koopman, C. Lavigne,
   S. Lehtola, F. März, M. Müller, F. Musil, H. Neugebauer, J. Pisarek,
   C. Plett, P. Pracht, F. Pultar, J. Seibert, P. Shushkov, S. Spicher,
   M. Stahn, M. Steiner, T. Strunk, J. Stückrath, T. Rose, and J. Unsleber
   
 * started run on 2026/05/23 at 12:58:52.488     
   ID    Z sym.   atoms
    1    7 N      1, 5, 10, 17, 27, 34, 39, 43, 54, 56, 57
    2    6 C      2, 3, 6-8, 11-14, 16, 18, 21-23, 28-31, 33, 35-38, 40,
                  44-48, 50-53, 55, 58
    3    8 O      4, 9, 15, 19, 20, 24-26, 32, 41, 49
    4   16 S      42
    5    1 H      59-117

           -------------------------------------------------
          |                Calculation Setup                |
           -------------------------------------------------

          program call               : /home/xchen/software/xtb-6.7.1-gxtb/bin/xtb /home/xchen/Test/benchmark/md_sampled/04_7_0231_n2/snap_0154.xyz --charge -2 --gxtb --norestart
          coordinate file            : /home/xchen/Test/benchmark/md_sampled/04_7_0231_n2/snap_0154.xyz
          omp threads                :                    48

core increment energy         -2.9312527735450E+03 Eh
dispersion energy              2.3206007240542E-02 Eh
molecular charge              -2.0000000000000E+00 e
number of electrons            3.2799999999710E+02 e
number of unpaired electrons   0.0000000000000E+00 e
wavefunction                   restricted
integral cutoff                2.6907767250513E+01 bohr
energy convergence             1.0000000000000E-06 Eh
density convergence            2.0000000000000E-05 e

------------------------------------------------------------
  cycle        total energy    energy error   density error
------------------------------------------------------------
      1     -3195.838020549  -2.6460845E+02   0.0000000E+00
      2     -3196.336842867  -4.9882232E-01   2.0317600E-02
      3     -3196.654606206  -3.1776334E-01   1.5959792E-02
      4     -3197.323472949  -6.6886674E-01   1.2596399E-02
      5     -3197.334506137  -1.1033188E-02   9.1215812E-04
      6     -3197.335369688  -8.6355081E-04   1.7379515E-04
      7     -3197.335440805  -7.1117843E-05   5.3502606E-05
      8     -3197.335446412  -5.6069841E-06   1.5143216E-05
      9     -3197.335447109  -6.9631216E-07   2.5818925E-06
------------------------------------------------------------

electronic energy             -2.6610587957099E+02 Eh
total energy                  -3.1973354471088E+03 Eh

Post processing:
 | Mayer-Wiberg bond orders
 | Molecular Multipole Moments

 total:                                   8.647 sec
 - increment                              0.002 sec (  0%)
 - repulsion                              0.004 sec (  0%)
 - dispersion                             0.456 sec (  5%)
 - coulomb                                0.243 sec (  2%)
 - exchange                               0.004 sec (  0%)
 - hamiltonian                            0.499 sec (  5%)
 - acp                                    0.402 sec (  4%)
 - spin polarization                      0.000 sec (  0%)
 - post processing                        0.434 sec (  5%)
 - scc                                    6.013 sec ( 69%)
 - coulomb gradient                       0.060 sec (  0%)
 - dispersion gradient                    0.032 sec (  0%)
 - exchange gradient                      0.100 sec (  1%)
 - repulsion gradient                     0.004 sec (  0%)
 - acp gradient                           0.374 sec (  4%)
 - hamiltonian gradient                   0.444 sec (  5%)
 - gradient                               1.013 sec ( 11%)

         :::::::::::::::::::::::::::::::::::::::::::::::::::::
         ::                     SUMMARY                     ::
         :::::::::::::::::::::::::::::::::::::::::::::::::::::
         :: total energy           -3197.335447108754 Eh    ::
         :: gradient norm              0.446905601335 Eh/a0 ::
         :: HOMO-LUMO gap              5.883347910648 eV    ::
         ::.................................................::
         :: add. restraining           0.000000000000 Eh    ::
         :: total charge              -2.000000000000 e     ::
         :::::::::::::::::::::::::::::::::::::::::::::::::::::

           -------------------------------------------------
          |                Property Printout                |
           -------------------------------------------------

    * Orbital Energies and Occupations
------------------------------------------------------------------
      #    Occupation            Energy/Eh            Energy/eV
------------------------------------------------------------------
      1        2.0000           -1.2039677             -32.7616
    ...           ...                  ...                  ...
    152        2.0000           -0.2125634              -5.7841
    153        2.0000           -0.2106551              -5.7322
    154        2.0000           -0.2084033              -5.6709
    155        2.0000           -0.2041640              -5.5556
    156        2.0000           -0.1960159              -5.3339
    157        2.0000           -0.1929761              -5.2511
    158        2.0000           -0.1866332              -5.0785
    159        2.0000           -0.1803099              -4.9065
    160        2.0000           -0.1744389              -4.7467
    161        2.0000           -0.1651917              -4.4951
    162        2.0000           -0.1375496              -3.7429
    163        2.0000           -0.1230201              -3.3475
    164        2.0000           -0.0977162              -2.6590 (HOMO)
    165                          0.1184929               3.2244 (LUMO)
    166                          0.1514559               4.1213
    167                          0.1554544               4.2301
    168                          0.1620065               4.4084
    169                          0.1764407               4.8012
    170                          0.1800113               4.8984
    171                          0.1861761               5.0661
    172                          0.1980478               5.3892
    173                          0.2019253               5.4947
    174                          0.2092265               5.6933
    175                          0.2165663               5.8931
    ...                                ...                  ...
    296                          0.9046872              24.6178
------------------------------------------------------------------
               HL-Gap            0.2162090 Eh            5.8833 eV
------------------------------------------------------------------

Atomic charges and shell populations (in atomic units):
-----------------------------------------------------------------
     #    Z                q          p(s)       p(p)       p(d)
-----------------------------------------------------------------
     1    7 N      -0.335151      1.350273   3.984878
     2    6 C       0.011761      1.124411   2.863828
     3    6 C       0.453016      1.092386   2.454598
     4    8 O      -0.556043      1.852914   4.703129
     5    7 N      -0.308974      1.342199   3.966775
     6    6 C       0.002760      1.112708   2.884531
     7    6 C       0.427185      1.098336   2.474478
     8    6 C       0.001543      1.120053   2.878404
     9    8 O      -0.544897      1.856032   4.688865
    10    7 N      -0.326992      1.363516   3.963476
    11    6 C      -0.202988      1.132592   3.070395
    12    6 C       0.417336      1.109173   2.473491
    13    6 C      -0.249996      1.193023   3.056974
    14    6 C      -0.006111      1.102941   2.903170
    15    8 O      -0.615220      1.846623   4.768597
    16    6 C       0.514607      1.106358   2.379035
    17    7 N      -0.534347      1.536132   3.998215
    18    6 C      -0.163508      1.168584   2.994924
    19    8 O      -0.735000      1.860634   4.874366
    20    8 O      -0.648708      1.854683   4.794026
    21    6 C       0.379840      1.102695   2.517465
    22    6 C       0.496043      1.117283   2.386674
    23    6 C       0.007668      1.129618   2.862714
    24    8 O      -0.660080      1.860194   4.799886
    25    8 O      -0.597870      1.861166   4.736704
    26    8 O      -0.523563      1.803507   4.720056
    27    7 N      -0.313881      1.356595   3.957286
    28    6 C      -0.200533      1.169412   3.031121
    29    6 C       0.402483      1.097315   2.500202
    30    6 C      -0.201615      1.155187   3.046428
    31    6 C      -0.001129      1.125092   2.876037
    32    8 O      -0.561614      1.852923   4.708691
    33    6 C      -0.188296      1.160404   3.027892
    34    7 N      -0.344181      1.357201   3.986981
    35    6 C      -0.171334      1.128378   3.042957
    36    6 C      -0.096511      1.141965   2.954546
    37    6 C       0.431408      1.086681   2.481911
    38    6 C      -0.122958      1.164089   2.958869
    39    7 N      -0.541057      1.406018   4.135039
    40    6 C      -0.001674      1.128170   2.873505
    41    8 O      -0.538652      1.847862   4.690790
    42   16 S      -0.215561      1.882990   4.257921   0.074650
    43    7 N      -0.360707      1.353193   4.007514
    44    6 C      -0.107403      1.165210   2.942194
    45    6 C      -0.207873      1.188402   3.019471
    46    6 C       0.402381      1.110899   2.486720
    47    6 C      -0.276948      1.169737   3.107211
    48    6 C      -0.216641      1.159492   3.057150
    49    8 O      -0.534864      1.851489   4.683375
    50    6 C      -0.280779      1.168279   3.112500
    51    6 C      -0.175254      1.154966   3.020288
    52    6 C      -0.190696      1.133234   3.057462
    53    6 C      -0.063002      1.168580   2.894422
    54    7 N      -0.387872      1.375558   4.012315
    55    6 C       0.283639      1.095880   2.620481
    56    7 N      -0.565886      1.596853   3.969033
    57    7 N      -0.479117      1.452931   4.026186
    58    6 C      -0.308734      1.173635   3.135099
    59    1 H       0.302811      0.697189
    60    1 H       0.106764      0.893236
    61    1 H       0.287230      0.712770
    62    1 H       0.148022      0.851978
    63    1 H       0.129533      0.870467
    64    1 H       0.282632      0.717368
    65    1 H       0.140772      0.859228
    66    1 H       0.111939      0.888061
    67    1 H       0.120394      0.879606
    68    1 H       0.049382      0.950618
    69    1 H       0.120043      0.879957
    70    1 H       0.385702      0.614298
    71    1 H       0.120295      0.879705
    72    1 H       0.111861      0.888139
    73    1 H       0.137716      0.862284
    74    1 H       0.277673      0.722327
    75    1 H       0.097403      0.902597
    76    1 H       0.102892      0.897108
    77    1 H       0.111172      0.888828
    78    1 H       0.093861      0.906139
    79    1 H       0.106514      0.893486
    80    1 H       0.102825      0.897175
    81    1 H       0.077546      0.922454
    82    1 H       0.265321      0.734679
    83    1 H       0.105720      0.894280
    84    1 H       0.131901      0.868099
    85    1 H       0.097115      0.902885
    86    1 H       0.088718      0.911282
    87    1 H       0.099716      0.900284
    88    1 H       0.100430      0.899570
    89    1 H       0.261253      0.738747
    90    1 H       0.211764      0.788236
    91    1 H       0.127153      0.872847
    92    1 H       0.243545      0.756455
    93    1 H       0.105445      0.894555
    94    1 H       0.110909      0.889091
    95    1 H       0.117109      0.882891
    96    1 H       0.090876      0.909124
    97    1 H       0.105725      0.894275
    98    1 H       0.093334      0.906666
    99    1 H       0.096551      0.903449
   100    1 H       0.118444      0.881556
   101    1 H       0.116946      0.883054
   102    1 H       0.090319      0.909681
   103    1 H       0.092681      0.907319
   104    1 H       0.107867      0.892133
   105    1 H       0.137416      0.862584
   106    1 H       0.085455      0.914545
   107    1 H       0.111100      0.888900
   108    1 H       0.125622      0.874378
   109    1 H       0.099201      0.900799
   110    1 H       0.091178      0.908822
   111    1 H       0.264166      0.735834
   112    1 H       0.206852      0.793148
   113    1 H       0.227072      0.772928
   114    1 H       0.240398      0.759602
   115    1 H       0.132882      0.867118
   116    1 H       0.100301      0.899699
   117    1 H       0.107086      0.892914
-----------------------------------------------------------------


Wiberg/Mayer (AO) data.
largest (>0.10) Wiberg bond orders for each atom

 ---------------------------------------------------------------------------
     #   Z sym  total        # sym  WBO       # sym  WBO       # sym  WBO
 ---------------------------------------------------------------------------
     1   7 N    3.362 --     7 C    1.254     2 C    1.003    59 N    0.841
                             9 C    0.165
     2   6 C    3.945 --     1 N    1.003    51 C    0.954    60 N    0.938
                             3 C    0.925
     3   6 C    3.863 --     4 C    1.655     5 N    1.201     2 C    0.925
     4   8 C    1.935 --     3 C    1.655     5 N    0.153
     5   7 N    3.331 --     3 C    1.201     6 C    0.995    61 N    0.880
                             4 C    0.153
     6   6 C    3.941 --     5 N    0.995    58 C    0.979    46 C    0.935
                            62 N    0.920
     7   6 C    3.867 --     9 C    1.626     1 N    1.254     8 C    0.912
     8   6 C    3.924 --    11 C    1.008    63 N    0.935    10 N    0.932
                             7 C    0.912
     9   8 C    1.934 --     7 C    1.626     1 N    0.165
    10   7 N    3.350 --    12 C    1.296     8 C    0.932    64 N    0.878
                            15 C    0.151
    11   6 C    3.953 --     8 C    1.008    13 C    0.999    66 N    0.954
                            65 N    0.937
    12   6 C    3.854 --    15 C    1.552    10 N    1.296    14 C    0.896
    13   6 C    3.932 --    11 C    0.999    68 N    0.965    67 N    0.954
                            16 C    0.835
    14   6 C    3.965 --    17 N    1.025    18 C    0.984    69 N    0.934
                            12 C    0.896
    15   8 C    1.874 --    12 C    1.552    10 N    0.151
    16   6 C    3.839 --    20 C    1.552    19 C    1.425    13 C    0.835
    17   7 N    2.981 --    21 C    1.389    14 C    1.025    70 N    0.213
                            24 C    0.180
    18   6 C    3.956 --    14 C    0.984    72 N    0.952    71 N    0.940
                            22 C    0.935
    19   8 C    1.710 --    16 C    1.425    20 C    0.186
    20   8 C    1.837 --    16 C    1.552    19 C    0.186
    21   6 C    3.900 --    24 C    1.486    17 N    1.389    23 C    0.945
    22   6 C    3.809 --    25 C    1.626    26 C    1.207    18 C    0.935
    23   6 C    3.910 --    28 C    0.955    21 C    0.945    27 N    0.944
                            73 N    0.944
    24   8 C    1.799 --    21 C    1.486    17 N    0.180
    25   8 C    1.863 --    22 C    1.626    26 C    0.149
    26   8 C    2.101 --    22 C    1.207    70 N    0.615    25 C    0.149
    27   7 N    3.389 --    29 C    1.309    23 C    0.944    74 N    0.879
                            32 C    0.172
    28   6 C    3.959 --    30 C    1.005    75 N    0.964    76 N    0.960
                            23 C    0.955
    29   6 C    3.883 --    32 C    1.612    27 N    1.309    31 C    0.900
    30   6 C    3.962 --    28 C    1.005    33 C    1.002    78 N    0.963
                            77 N    0.945
    31   6 C    3.934 --    35 C    0.993    34 N    0.954    79 N    0.939
                            29 C    0.900
    32   8 C    1.913 --    29 C    1.612    27 N    0.172
    33   6 C    3.964 --    36 C    1.006    30 C    1.002    81 N    0.956
                            80 N    0.947
    34   7 N    3.308 --    37 C    1.203    31 C    0.954    82 N    0.889
                            41 C    0.168
    35   6 C    3.961 --    38 C    1.027    31 C    0.993    83 N    0.945
                            84 N    0.939
    36   6 C    3.955 --    39 N    1.006    33 C    1.006    85 N    0.962
                            86 N    0.957
    37   6 C    3.878 --    41 C    1.667    34 N    1.203    40 C    0.936
    38   6 C    3.945 --    35 C    1.027    42 O    0.977    88 N    0.956
                            87 N    0.948
    39   7 N    2.919 --    36 C    1.006    90 N    0.936    89 N    0.915
    40   6 C    3.934 --    43 N    0.967    44 C    0.959    91 N    0.938
                            37 C    0.936
    41   8 C    1.950 --    37 C    1.667    34 N    0.168
    42  16 O    2.083 --    45 C    0.999    38 C    0.977
    43   7 N    3.294 --    46 C    1.177    40 C    0.967    92 N    0.897
                            49 C    0.155
    44   6 C    3.961 --    47 C    1.003    48 C    0.981    40 C    0.959
                            93 N    0.952
    45   6 C    3.926 --    42 O    0.999    96 N    0.973    94 N    0.967
                            95 N    0.960
    46   6 C    3.861 --    49 C    1.675    43 N    1.177     6 C    0.935
    47   6 C    3.957 --    44 C    1.003    99 N    0.975    98 N    0.970
                            97 N    0.965
    48   6 C    3.957 --    50 C    1.019    44 C    0.981   101 N    0.961
                           100 N    0.958
    49   8 C    1.944 --    46 C    1.675    43 N    0.155
    50   6 C    3.959 --    48 C    1.019   103 N    0.975   104 N    0.973
                           102 N    0.965
    51   6 C    3.959 --    52 C    1.022   106 N    0.956     2 C    0.954
                           105 N    0.952
    52   6 C    3.964 --    51 C    1.022    53 C    1.017   107 N    0.949
                           108 N    0.944
    53   6 C    3.911 --    52 C    1.017   110 N    0.959   109 N    0.950
                            54 N    0.928
    54   7 N    3.248 --    55 C    1.196    53 C    0.928   111 N    0.892
                            56 N    0.137
    55   6 C    3.935 --    56 N    1.664    54 N    1.196    57 N    1.049
    56   7 N    2.848 --    55 C    1.664   112 N    0.915    54 N    0.137
    57   7 N    3.046 --    55 C    1.049   114 N    0.926   113 N    0.925
    58   6 C    3.946 --     6 C    0.979   117 N    0.971   116 N    0.968
                           115 N    0.967
    59   1 N    0.908 --     1 N    0.841
    60   1 N    0.989 --     2 C    0.938
    61   1 N    0.917 --     5 N    0.880
    62   1 N    0.978 --     6 C    0.920
    63   1 N    0.983 --     8 C    0.935
    64   1 N    0.920 --    10 N    0.878
    65   1 N    0.980 --    11 C    0.937
    66   1 N    0.987 --    11 C    0.954
    67   1 N    0.986 --    13 C    0.954
    68   1 N    0.998 --    13 C    0.965
    69   1 N    0.986 --    14 C    0.934
    70   1 N    0.851 --    26 C    0.615    17 N    0.213
    71   1 N    0.986 --    18 C    0.940
    72   1 N    0.987 --    18 C    0.952
    73   1 N    0.981 --    23 C    0.944
    74   1 N    0.923 --    27 N    0.879
    75   1 N    0.991 --    28 C    0.964
    76   1 N    0.989 --    28 C    0.960
    77   1 N    0.988 --    30 C    0.945
    78   1 N    0.991 --    30 C    0.963
    79   1 N    0.989 --    31 C    0.939
    80   1 N    0.989 --    33 C    0.947
    81   1 N    0.994 --    33 C    0.956
    82   1 N    0.930 --    34 N    0.889
    83   1 N    0.989 --    35 C    0.945
    84   1 N    0.983 --    35 C    0.939
    85   1 N    0.991 --    36 C    0.962
    86   1 N    0.992 --    36 C    0.957
    87   1 N    0.990 --    38 C    0.948
    88   1 N    0.990 --    38 C    0.956
    89   1 N    0.932 --    39 N    0.915
    90   1 N    0.955 --    39 N    0.936
    91   1 N    0.984 --    40 C    0.938
    92   1 N    0.941 --    43 N    0.897
    93   1 N    0.989 --    44 C    0.952
    94   1 N    0.988 --    45 C    0.967
    95   1 N    0.986 --    45 C    0.960
    96   1 N    0.992 --    45 C    0.973
    97   1 N    0.989 --    47 C    0.965
    98   1 N    0.991 --    47 C    0.970
    99   1 N    0.991 --    47 C    0.975
   100   1 N    0.986 --    48 C    0.958
   101   1 N    0.986 --    48 C    0.961
   102   1 N    0.992 --    50 C    0.965
   103   1 N    0.991 --    50 C    0.975
   104   1 N    0.988 --    50 C    0.973
   105   1 N    0.981 --    51 C    0.952
   106   1 N    0.993 --    51 C    0.956
   107   1 N    0.988 --    52 C    0.949
   108   1 N    0.984 --    52 C    0.944
   109   1 N    0.990 --    53 C    0.950
   110   1 N    0.992 --    53 C    0.959
   111   1 N    0.930 --    54 N    0.892
   112   1 N    0.957 --    56 N    0.915
   113   1 N    0.948 --    57 N    0.925
   114   1 N    0.942 --    57 N    0.926
   115   1 N    0.982 --    58 C    0.967
   116   1 N    0.990 --    58 C    0.968
   117   1 N    0.989 --    58 C    0.971
 ---------------------------------------------------------------------------

Topologies differ in total number of bonds
Writing topology from bond orders to xtbtopo.mol

Atomic dipole moments (in atomic units):
---------------------------------------------------------
     #    Z                 x            y            z
---------------------------------------------------------
           total    -0.441622    14.033292     2.336128
---------------------------------------------------------
         |total|    14.233264    36.177348 Debye


           -------------------------------------------------
          | TOTAL ENERGY            -3197.335447108754 Eh   |
          | GRADIENT NORM               0.446905601335 Eh/α |
           -------------------------------------------------

------------------------------------------------------------------------
 * finished run on 2026/05/23 at 12:59:02.207     
------------------------------------------------------------------------
 total:
 * wall-time:     0 d,  0 h,  0 min,  9.718 sec
 *  cpu-time:     0 d,  0 h,  0 min, 31.953 sec
 * ratio c/w:     3.288 speedup
 SCF:
 * wall-time:     0 d,  0 h,  0 min,  9.299 sec
 *  cpu-time:     0 d,  0 h,  0 min, 31.259 sec
 * ratio c/w:     3.362 speedup

normal termination of xtb
