      -----------------------------------------------------------      
     |                   =====================                   |     
     |                           x T B                           |     
     |                   =====================                   |     
     |                         S. Grimme                         |     
     |          Mulliken Center for Theoretical Chemistry        |     
     |                    University of Bonn                     |     
      -----------------------------------------------------------      

   * xtb version 6.7.1 (26dd68d) compiled by 'froitzheim@fs7' on 2026-05-14

   xtb is free software: you can redistribute it and/or modify it under
   the terms of the GNU Lesser General Public License as published by
   the Free Software Foundation, either version 3 of the License, or
   (at your option) any later version.
   
   xtb is distributed in the hope that it will be useful,
   but WITHOUT ANY WARRANTY; without even the implied warranty of
   MERCHANTABILITY or FITNESS FOR A PARTICULAR PURPOSE.  See the
   GNU Lesser General Public License for more details.
   
   Cite this work as:
   * C. Bannwarth, E. Caldeweyher, S. Ehlert, A. Hansen, P. Pracht,
     J. Seibert, S. Spicher, S. Grimme, WIREs Comput. Mol. Sci., 2020, 11,
     e01493. DOI: 10.1002/wcms.1493
   
   for g-xTB:
   * T. Froitzheim, M. Müller, A. Hansen, S. Grimme, ChemRxiv, 2025, preprint.
     DOI: 10.26434/chemrxiv-2025-bjxv
   for GFN2-xTB:
   * C. Bannwarth, S. Ehlert and S. Grimme., J. Chem. Theory Comput., 2019,
     15, 1652-1671. DOI: 10.1021/acs.jctc.8b01176
   for GFN1-xTB:
   * S. Grimme, C. Bannwarth, P. Shushkov, J. Chem. Theory Comput., 2017,
     13, 1989-2009. DOI: 10.1021/acs.jctc.7b00118
   for GFN0-xTB:
   * P. Pracht, E. Caldeweyher, S. Ehlert, S. Grimme, ChemRxiv, 2019, preprint.
     DOI: 10.26434/chemrxiv.8326202.v1
   for GFN-FF:
   * S. Spicher and S. Grimme, Angew. Chem. Int. Ed., 2020, 59, 15665-15673.
     DOI: 10.1002/anie.202004239
   
   for ALPB and GBSA implicit solvation:
   * S. Ehlert, M. Stahn, S. Spicher, S. Grimme, J. Chem. Theory Comput.,
     2021, 17, 4250-4261. DOI: 10.1021/acs.jctc.1c00471
   
   for ddCOSMO and CPCM-X implicit solvation:
   * M. Stahn, S. Ehlert, S. Grimme, J. Phys. Chem. A,
     2023, XX, XXXX-XXXX. DOI: 10.1021/acs.jpca.3c04382
   
   for DFT-D4:
   * E. Caldeweyher, C. Bannwarth and S. Grimme, J. Chem. Phys., 2017,
     147, 034112. DOI: 10.1063/1.4993215
   * E. Caldeweyher, S. Ehlert, A. Hansen, H. Neugebauer, S. Spicher,
     C. Bannwarth and S. Grimme, J. Chem. Phys., 2019, 150, 154122.
     DOI: 10.1063/1.5090222
   * E. Caldeweyher, J.-M. Mewes, S. Ehlert and S. Grimme, Phys. Chem. Chem. Phys.
     2020, 22, 8499-8512. DOI: 10.1039/D0CP00502A
   
   for sTDA-xTB:
   * S. Grimme and C. Bannwarth, J. Chem. Phys., 2016, 145, 054103.
     DOI: 10.1063/1.4959605
   
   in the mass-spec context:
   * V. Asgeirsson, C. Bauer and S. Grimme, Chem. Sci., 2017, 8, 4879.
     DOI: 10.1039/c7sc00601b
   * J. Koopman and S. Grimme, ACS Omega 2019, 4, 12, 15120-15133.
     DOI: 10.1021/acsomega.9b02011
   
   for metadynamics refer to:
   * S. Grimme, J. Chem. Theory Comput., 2019, 155, 2847-2862
     DOI: 10.1021/acs.jctc.9b00143
   
   for SPH calculations refer to:
   * S. Spicher and S. Grimme, J. Chem. Theory Comput., 2021, 17, 1701-1714
     DOI: 10.1021/acs.jctc.0c01306
   
   for ONIOM refer to:
   * C. Plett, A. Katbashev, S. Ehlert, S. Grimme, M. Bursch,
     Phys. Chem. Chem. Phys., 2023, 25, 17860-17868. DOI: 10.1039/D3CP02178E
   
   for DIPRO refer to:
   * J. Kohn, N. Gildemeister, S. Grimme, D. Fazzi, A. Hansen,
     J. Chem. Phys. 159, 144106 (2023). DOI: 10.1063/5.0167484
   
   for PTB refer to:
   * S. Grimme, M. Mueller, A. Hansen, J. Chem. Phys., 2023, 158, 124111.
     DOI: 10.1063/5.0137838
   
   with help from (in alphabetical order)
   P. Atkinson, C. Bannwarth, F. Bohle, G. Brandenburg, E. Caldeweyher,
   M. Checinski, S. Dohm, S. Ehlert, S. Ehrlich, M. Friede, T. Froitzheim,
   I. Gerasimov, C. Hölzer, A. Katbashev, J. Kohn, J. Koopman, C. Lavigne,
   S. Lehtola, F. März, M. Müller, F. Musil, H. Neugebauer, J. Pisarek,
   C. Plett, P. Pracht, F. Pultar, J. Seibert, P. Shushkov, S. Spicher,
   M. Stahn, M. Steiner, T. Strunk, J. Stückrath, T. Rose, and J. Unsleber
   
 * started run on 2026/05/23 at 12:53:46.848     
   ID    Z sym.   atoms
    1    7 N      1, 5, 10, 17, 27, 34, 39, 43, 54, 56, 57
    2    6 C      2, 3, 6-8, 11-14, 16, 18, 21-23, 28-31, 33, 35-38, 40,
                  44-48, 50-53, 55, 58
    3    8 O      4, 9, 15, 19, 20, 24-26, 32, 41, 49
    4   16 S      42
    5    1 H      59-117

           -------------------------------------------------
          |                Calculation Setup                |
           -------------------------------------------------

          program call               : /home/xchen/software/xtb-6.7.1-gxtb/bin/xtb /home/xchen/Test/benchmark/md_sampled/04_7_0231_n2/snap_0121.xyz --charge -2 --gxtb --norestart
          coordinate file            : /home/xchen/Test/benchmark/md_sampled/04_7_0231_n2/snap_0121.xyz
          omp threads                :                    48

core increment energy         -2.9312527735450E+03 Eh
dispersion energy              2.3583992631823E-02 Eh
molecular charge              -2.0000000000000E+00 e
number of electrons            3.2799999999710E+02 e
number of unpaired electrons   0.0000000000000E+00 e
wavefunction                   restricted
integral cutoff                2.6907767250513E+01 bohr
energy convergence             1.0000000000000E-06 Eh
density convergence            2.0000000000000E-05 e

------------------------------------------------------------
  cycle        total energy    energy error   density error
------------------------------------------------------------
      1     -3195.857806435  -2.6462862E+02   0.0000000E+00
      2     -3196.361587939  -5.0378150E-01   1.9833166E-02
      3     -3196.682783953  -3.2119601E-01   1.5598073E-02
      4     -3197.359727723  -6.7694377E-01   1.2330463E-02
      5     -3197.370581890  -1.0854168E-02   8.9678497E-04
      6     -3197.371458856  -8.7696532E-04   1.7788749E-04
      7     -3197.371533355  -7.4499720E-05   5.2037556E-05
      8     -3197.371539542  -6.1868804E-06   1.7254634E-05
      9     -3197.371540242  -6.9929695E-07   2.8367352E-06
------------------------------------------------------------

electronic energy             -2.6614235068919E+02 Eh
total energy                  -3.1973715402416E+03 Eh

Post processing:
 | Mayer-Wiberg bond orders
 | Molecular Multipole Moments

 total:                                  31.413 sec
 - increment                              0.000 sec (  0%)
 - repulsion                              0.009 sec (  0%)
 - dispersion                             0.265 sec (  0%)
 - coulomb                                0.161 sec (  0%)
 - exchange                               0.004 sec (  0%)
 - hamiltonian                           17.663 sec ( 56%)
 - acp                                    0.303 sec (  0%)
 - spin polarization                      0.000 sec (  0%)
 - post processing                        0.159 sec (  0%)
 - scc                                   11.819 sec ( 37%)
 - coulomb gradient                       0.099 sec (  0%)
 - dispersion gradient                    0.041 sec (  0%)
 - exchange gradient                      0.126 sec (  0%)
 - repulsion gradient                     0.008 sec (  0%)
 - acp gradient                           0.270 sec (  0%)
 - hamiltonian gradient                   0.636 sec (  2%)
 - gradient                               1.181 sec (  3%)

         :::::::::::::::::::::::::::::::::::::::::::::::::::::
         ::                     SUMMARY                     ::
         :::::::::::::::::::::::::::::::::::::::::::::::::::::
         :: total energy           -3197.371540241559 Eh    ::
         :: gradient norm              0.415780306881 Eh/a0 ::
         :: HOMO-LUMO gap              6.391054005049 eV    ::
         ::.................................................::
         :: add. restraining           0.000000000000 Eh    ::
         :: total charge              -2.000000000000 e     ::
         :::::::::::::::::::::::::::::::::::::::::::::::::::::

           -------------------------------------------------
          |                Property Printout                |
           -------------------------------------------------

    * Orbital Energies and Occupations
------------------------------------------------------------------
      #    Occupation            Energy/Eh            Energy/eV
------------------------------------------------------------------
      1        2.0000           -1.1877355             -32.3199
    ...           ...                  ...                  ...
    152        2.0000           -0.2038738              -5.5477
    153        2.0000           -0.2021668              -5.5012
    154        2.0000           -0.1997448              -5.4353
    155        2.0000           -0.1989747              -5.4144
    156        2.0000           -0.1859248              -5.0593
    157        2.0000           -0.1812311              -4.9315
    158        2.0000           -0.1728995              -4.7048
    159        2.0000           -0.1669634              -4.5433
    160        2.0000           -0.1657157              -4.5094
    161        2.0000           -0.1510914              -4.1114
    162        2.0000           -0.1361281              -3.7042
    163        2.0000           -0.1184043              -3.2219
    164        2.0000           -0.1084376              -2.9507 (HOMO)
    165                          0.1264293               3.4403 (LUMO)
    166                          0.1406298               3.8267
    167                          0.1612236               4.3871
    168                          0.1686853               4.5902
    169                          0.1790699               4.8727
    170                          0.1842080               5.0126
    171                          0.1878724               5.1123
    172                          0.1891740               5.1477
    173                          0.2046402               5.5685
    174                          0.2102205               5.7204
    175                          0.2359468               6.4204
    ...                                ...                  ...
    296                          0.9320244              25.3617
------------------------------------------------------------------
               HL-Gap            0.2348669 Eh            6.3911 eV
------------------------------------------------------------------

Atomic charges and shell populations (in atomic units):
-----------------------------------------------------------------
     #    Z                q          p(s)       p(p)       p(d)
-----------------------------------------------------------------
     1    7 N      -0.349192      1.359294   3.989898
     2    6 C       0.007879      1.114078   2.878043
     3    6 C       0.433579      1.101174   2.465247
     4    8 O      -0.579317      1.858664   4.720653
     5    7 N      -0.292029      1.349993   3.942036
     6    6 C      -0.012567      1.085386   2.927181
     7    6 C       0.428625      1.111409   2.459966
     8    6 C      -0.000368      1.101826   2.898543
     9    8 O      -0.548999      1.859367   4.689632
    10    7 N      -0.324645      1.383548   3.941097
    11    6 C      -0.168248      1.143468   3.024780
    12    6 C       0.418045      1.138084   2.443871
    13    6 C      -0.204111      1.154665   3.049445
    14    6 C      -0.010343      1.122336   2.888007
    15    8 O      -0.583963      1.856459   4.727504
    16    6 C       0.510581      1.069644   2.419775
    17    7 N      -0.555637      1.545074   4.010563
    18    6 C      -0.184641      1.185296   2.999345
    19    8 O      -0.703462      1.847716   4.855746
    20    8 O      -0.699657      1.855860   4.843798
    21    6 C       0.400385      1.094462   2.505153
    22    6 C       0.532950      1.089256   2.377794
    23    6 C       0.018622      1.127775   2.853603
    24    8 O      -0.689582      1.852746   4.836836
    25    8 O      -0.524157      1.846750   4.677407
    26    8 O      -0.495975      1.785527   4.710447
    27    7 N      -0.339151      1.378582   3.960570
    28    6 C      -0.164118      1.161578   3.002540
    29    6 C       0.407423      1.096624   2.495953
    30    6 C      -0.194298      1.136902   3.057396
    31    6 C      -0.023920      1.122556   2.901364
    32    8 O      -0.547810      1.849619   4.698191
    33    6 C      -0.188160      1.144324   3.043836
    34    7 N      -0.333003      1.364031   3.968972
    35    6 C      -0.180619      1.142930   3.037689
    36    6 C      -0.122949      1.130369   2.992580
    37    6 C       0.396406      1.116597   2.486996
    38    6 C      -0.115945      1.158093   2.957852
    39    7 N      -0.532865      1.527191   4.005674
    40    6 C      -0.015319      1.123781   2.891538
    41    8 O      -0.567095      1.857313   4.709782
    42   16 S      -0.210514      1.870407   4.249890   0.090217
    43    7 N      -0.366692      1.358629   4.008063
    44    6 C      -0.106405      1.161141   2.945264
    45    6 C      -0.212012      1.175066   3.036946
    46    6 C       0.422260      1.110689   2.467051
    47    6 C      -0.262355      1.173875   3.088480
    48    6 C      -0.191161      1.144020   3.047141
    49    8 O      -0.506076      1.857775   4.648301
    50    6 C      -0.278875      1.149595   3.129280
    51    6 C      -0.168881      1.154926   3.013955
    52    6 C      -0.189646      1.167638   3.022008
    53    6 C      -0.093057      1.138166   2.954891
    54    7 N      -0.379206      1.365075   4.014131
    55    6 C       0.284247      1.094811   2.620942
    56    7 N      -0.539208      1.586149   3.953060
    57    7 N      -0.460306      1.448194   4.012112
    58    6 C      -0.258060      1.159919   3.098142
    59    1 H       0.283491      0.716509
    60    1 H       0.112862      0.887138
    61    1 H       0.296162      0.703838
    62    1 H       0.160225      0.839775
    63    1 H       0.103289      0.896711
    64    1 H       0.276914      0.723086
    65    1 H       0.126844      0.873156
    66    1 H       0.094533      0.905467
    67    1 H       0.105369      0.894631
    68    1 H       0.082605      0.917395
    69    1 H       0.113135      0.886865
    70    1 H       0.397494      0.602506
    71    1 H       0.097611      0.902389
    72    1 H       0.109510      0.890490
    73    1 H       0.115767      0.884233
    74    1 H       0.277079      0.722921
    75    1 H       0.059637      0.940363
    76    1 H       0.115373      0.884627
    77    1 H       0.130522      0.869478
    78    1 H       0.084367      0.915633
    79    1 H       0.121285      0.878715
    80    1 H       0.102508      0.897492
    81    1 H       0.054882      0.945118
    82    1 H       0.279645      0.720355
    83    1 H       0.118064      0.881936
    84    1 H       0.131917      0.868083
    85    1 H       0.082188      0.917812
    86    1 H       0.085716      0.914284
    87    1 H       0.093899      0.906101
    88    1 H       0.092140      0.907860
    89    1 H       0.276846      0.723154
    90    1 H       0.187410      0.812590
    91    1 H       0.124747      0.875253
    92    1 H       0.261200      0.738800
    93    1 H       0.112978      0.887022
    94    1 H       0.114275      0.885725
    95    1 H       0.125238      0.874762
    96    1 H       0.091552      0.908448
    97    1 H       0.071725      0.928275
    98    1 H       0.102476      0.897524
    99    1 H       0.096822      0.903178
   100    1 H       0.094419      0.905581
   101    1 H       0.115883      0.884117
   102    1 H       0.082986      0.917014
   103    1 H       0.101281      0.898719
   104    1 H       0.095111      0.904889
   105    1 H       0.130158      0.869842
   106    1 H       0.087075      0.912925
   107    1 H       0.096555      0.903445
   108    1 H       0.118063      0.881937
   109    1 H       0.092167      0.907833
   110    1 H       0.086746      0.913254
   111    1 H       0.257706      0.742294
   112    1 H       0.222653      0.777347
   113    1 H       0.228434      0.771566
   114    1 H       0.239645      0.760355
   115    1 H       0.143391      0.856609
   116    1 H       0.063959      0.936041
   117    1 H       0.087059      0.912941
-----------------------------------------------------------------


Wiberg/Mayer (AO) data.
largest (>0.10) Wiberg bond orders for each atom

 ---------------------------------------------------------------------------
     #   Z sym  total        # sym  WBO       # sym  WBO       # sym  WBO
 ---------------------------------------------------------------------------
     1   7 N    3.299 --     7 C    1.208     2 C    0.962    59 N    0.868
                             9 C    0.157
     2   6 C    3.954 --    51 C    1.006     1 N    0.962    60 N    0.944
                             3 C    0.926
     3   6 C    3.868 --     4 C    1.597     5 N    1.266     2 C    0.926
     4   8 C    1.897 --     3 C    1.597     5 N    0.159
     5   7 N    3.367 --     3 C    1.266     6 C    0.968    61 N    0.875
                             4 C    0.159
     6   6 C    3.941 --    58 C    1.008     5 N    0.968    46 C    0.954
                            62 N    0.892
     7   6 C    3.854 --     9 C    1.641     1 N    1.208     8 C    0.920
     8   6 C    3.946 --    11 C    1.006    10 N    0.969    63 N    0.937
                             7 C    0.920
     9   8 C    1.928 --     7 C    1.641     1 N    0.157
    10   7 N    3.309 --    12 C    1.193     8 C    0.969    64 N    0.871
                            15 C    0.151
    11   6 C    3.954 --     8 C    1.006    13 C    1.002    66 N    0.949
                            65 N    0.940
    12   6 C    3.830 --    15 C    1.630    10 N    1.193    14 C    0.909
    13   6 C    3.965 --    11 C    1.002    68 N    0.957    67 N    0.955
                            16 C    0.937
    14   6 C    3.963 --    17 N    1.026    18 C    0.973    69 N    0.930
                            12 C    0.909
    15   8 C    1.922 --    12 C    1.630    10 N    0.151
    16   6 C    3.867 --    20 C    1.480    19 C    1.427    13 C    0.937
    17   7 N    2.888 --    21 C    1.453    14 C    1.026    24 C    0.178
    18   6 C    3.955 --    14 C    0.973    72 N    0.964    71 N    0.955
                            22 C    0.915
    19   8 C    1.775 --    16 C    1.427    20 C    0.191
    20   8 C    1.745 --    16 C    1.480    19 C    0.191
    21   6 C    3.895 --    17 N    1.453    24 C    1.448    23 C    0.920
    22   6 C    3.810 --    25 C    1.737    26 C    1.126    18 C    0.915
    23   6 C    3.916 --    28 C    0.971    27 N    0.956    73 N    0.941
                            21 C    0.920
    24   8 C    1.786 --    21 C    1.448    17 N    0.178
    25   8 C    1.986 --    22 C    1.737    26 C    0.150
    26   8 C    2.106 --    22 C    1.126    70 N    0.741    25 C    0.150
    27   7 N    3.352 --    29 C    1.267    23 C    0.956    74 N    0.854
                            32 C    0.177
    28   6 C    3.960 --    30 C    1.006    23 C    0.971    75 N    0.957
                            76 N    0.952
    29   6 C    3.885 --    32 C    1.637    27 N    1.267    31 C    0.911
    30   6 C    3.965 --    33 C    1.018    28 C    1.006    78 N    0.957
                            77 N    0.937
    31   6 C    3.930 --    35 C    0.979    34 N    0.958    79 N    0.938
                            29 C    0.911
    32   8 C    1.949 --    29 C    1.637    27 N    0.177
    33   6 C    3.971 --    30 C    1.018    36 C    1.003    81 N    0.960
                            80 N    0.950
    34   7 N    3.357 --    37 C    1.271    31 C    0.958    82 N    0.864
                            41 C    0.172
    35   6 C    3.955 --    38 C    1.017    31 C    0.979    83 N    0.951
                            84 N    0.935
    36   6 C    3.964 --    39 N    1.026    33 C    1.003    86 N    0.959
                            85 N    0.954
    37   6 C    3.870 --    41 C    1.611    34 N    1.271    40 C    0.898
    38   6 C    3.948 --    35 C    1.017    42 O    0.995    88 N    0.953
                            87 N    0.950
    39   7 N    2.925 --    36 C    1.026    90 N    0.948    89 N    0.851
    40   6 C    3.937 --    43 N    1.005    44 C    0.967    91 N    0.929
                            37 C    0.898
    41   8 C    1.901 --    37 C    1.611    34 N    0.172
    42  16 O    2.128 --    45 C    1.017    38 C    0.995
    43   7 N    3.297 --    46 C    1.114    40 C    1.005    92 N    0.888
                            49 C    0.151
    44   6 C    3.961 --    47 C    1.003    48 C    0.972    40 C    0.967
                            93 N    0.946
    45   6 C    3.927 --    42 O    1.017    94 N    0.963    96 N    0.963
                            95 N    0.955
    46   6 C    3.858 --    49 C    1.711    43 N    1.114     6 C    0.954
    47   6 C    3.958 --    44 C    1.003    97 N    0.977    98 N    0.968
                            99 N    0.964
    48   6 C    3.964 --    50 C    1.038    44 C    0.972   100 N    0.960
                           101 N    0.953
    49   8 C    1.983 --    46 C    1.711    43 N    0.151
    50   6 C    3.965 --    48 C    1.038   104 N    0.973   103 N    0.972
                           102 N    0.964
    51   6 C    3.956 --     2 C    1.006    52 C    0.985   106 N    0.956
                           105 N    0.955
    52   6 C    3.955 --    53 C    0.999    51 C    0.985   108 N    0.960
                           107 N    0.960
    53   6 C    3.932 --    52 C    0.999    54 N    0.990   109 N    0.952
                           110 N    0.951
    54   7 N    3.209 --    55 C    1.103    53 C    0.990   111 N    0.898
                            56 N    0.121
    55   6 C    3.940 --    56 N    1.741    54 N    1.103    57 N    1.063
    56   7 N    2.899 --    55 C    1.741   112 N    0.908    54 N    0.121
    57   7 N    3.044 --    55 C    1.063   114 N    0.924   113 N    0.918
    58   6 C    3.950 --     6 C    1.008   116 N    0.970   117 N    0.962
                           115 N    0.955
    59   1 N    0.920 --     1 N    0.868
    60   1 N    0.987 --     2 C    0.944
    61   1 N    0.912 --     5 N    0.875
    62   1 N    0.974 --     6 C    0.892
    63   1 N    0.989 --     8 C    0.937
    64   1 N    0.923 --    10 N    0.871
    65   1 N    0.984 --    11 C    0.940
    66   1 N    0.991 --    11 C    0.949
    67   1 N    0.989 --    13 C    0.955
    68   1 N    0.993 --    13 C    0.957
    69   1 N    0.987 --    14 C    0.930
    70   1 N    0.842 --    26 C    0.741
    71   1 N    0.990 --    18 C    0.955
    72   1 N    0.988 --    18 C    0.964
    73   1 N    0.987 --    23 C    0.941
    74   1 N    0.923 --    27 N    0.854
    75   1 N    0.996 --    28 C    0.957
    76   1 N    0.987 --    28 C    0.952
    77   1 N    0.983 --    30 C    0.937
    78   1 N    0.993 --    30 C    0.957
    79   1 N    0.985 --    31 C    0.938
    80   1 N    0.989 --    33 C    0.950
    81   1 N    0.997 --    33 C    0.960
    82   1 N    0.922 --    34 N    0.864
    83   1 N    0.986 --    35 C    0.951
    84   1 N    0.983 --    35 C    0.935
    85   1 N    0.993 --    36 C    0.954
    86   1 N    0.993 --    36 C    0.959
    87   1 N    0.991 --    38 C    0.950
    88   1 N    0.992 --    38 C    0.953
    89   1 N    0.923 --    39 N    0.851
    90   1 N    0.965 --    39 N    0.948
    91   1 N    0.984 --    40 C    0.929
    92   1 N    0.932 --    43 N    0.888
    93   1 N    0.987 --    44 C    0.946
    94   1 N    0.987 --    45 C    0.963
    95   1 N    0.984 --    45 C    0.955
    96   1 N    0.992 --    45 C    0.963
    97   1 N    0.995 --    47 C    0.977
    98   1 N    0.989 --    47 C    0.968
    99   1 N    0.991 --    47 C    0.964
   100   1 N    0.991 --    48 C    0.960
   101   1 N    0.987 --    48 C    0.953
   102   1 N    0.993 --    50 C    0.964
   103   1 N    0.990 --    50 C    0.972
   104   1 N    0.991 --    50 C    0.973
   105   1 N    0.983 --    51 C    0.955
   106   1 N    0.992 --    51 C    0.956
   107   1 N    0.991 --    52 C    0.960
   108   1 N    0.986 --    52 C    0.960
   109   1 N    0.992 --    53 C    0.952
   110   1 N    0.992 --    53 C    0.951
   111   1 N    0.934 --    54 N    0.898
   112   1 N    0.950 --    56 N    0.908
   113   1 N    0.948 --    57 N    0.918
   114   1 N    0.943 --    57 N    0.924
   115   1 N    0.979 --    58 C    0.955
   116   1 N    0.996 --    58 C    0.970
   117   1 N    0.992 --    58 C    0.962
 ---------------------------------------------------------------------------

Topologies differ in total number of bonds
Writing topology from bond orders to xtbtopo.mol

Atomic dipole moments (in atomic units):
---------------------------------------------------------
     #    Z                 x            y            z
---------------------------------------------------------
           total     1.651664    11.513242     2.102420
---------------------------------------------------------
         |total|    11.819599    30.042424 Debye


           -------------------------------------------------
          | TOTAL ENERGY            -3197.371540241559 Eh   |
          | GRADIENT NORM               0.415780306881 Eh/α |
           -------------------------------------------------

------------------------------------------------------------------------
 * finished run on 2026/05/23 at 12:54:19.175     
------------------------------------------------------------------------
 total:
 * wall-time:     0 d,  0 h,  0 min, 32.326 sec
 *  cpu-time:     0 d,  0 h,  1 min, 24.215 sec
 * ratio c/w:     2.605 speedup
 SCF:
 * wall-time:     0 d,  0 h,  0 min, 32.014 sec
 *  cpu-time:     0 d,  0 h,  1 min, 23.795 sec
 * ratio c/w:     2.617 speedup

normal termination of xtb
