      -----------------------------------------------------------      
     |                   =====================                   |     
     |                           x T B                           |     
     |                   =====================                   |     
     |                         S. Grimme                         |     
     |          Mulliken Center for Theoretical Chemistry        |     
     |                    University of Bonn                     |     
      -----------------------------------------------------------      

   * xtb version 6.7.1 (26dd68d) compiled by 'froitzheim@fs7' on 2026-05-14

   xtb is free software: you can redistribute it and/or modify it under
   the terms of the GNU Lesser General Public License as published by
   the Free Software Foundation, either version 3 of the License, or
   (at your option) any later version.
   
   xtb is distributed in the hope that it will be useful,
   but WITHOUT ANY WARRANTY; without even the implied warranty of
   MERCHANTABILITY or FITNESS FOR A PARTICULAR PURPOSE.  See the
   GNU Lesser General Public License for more details.
   
   Cite this work as:
   * C. Bannwarth, E. Caldeweyher, S. Ehlert, A. Hansen, P. Pracht,
     J. Seibert, S. Spicher, S. Grimme, WIREs Comput. Mol. Sci., 2020, 11,
     e01493. DOI: 10.1002/wcms.1493
   
   for g-xTB:
   * T. Froitzheim, M. Müller, A. Hansen, S. Grimme, ChemRxiv, 2025, preprint.
     DOI: 10.26434/chemrxiv-2025-bjxv
   for GFN2-xTB:
   * C. Bannwarth, S. Ehlert and S. Grimme., J. Chem. Theory Comput., 2019,
     15, 1652-1671. DOI: 10.1021/acs.jctc.8b01176
   for GFN1-xTB:
   * S. Grimme, C. Bannwarth, P. Shushkov, J. Chem. Theory Comput., 2017,
     13, 1989-2009. DOI: 10.1021/acs.jctc.7b00118
   for GFN0-xTB:
   * P. Pracht, E. Caldeweyher, S. Ehlert, S. Grimme, ChemRxiv, 2019, preprint.
     DOI: 10.26434/chemrxiv.8326202.v1
   for GFN-FF:
   * S. Spicher and S. Grimme, Angew. Chem. Int. Ed., 2020, 59, 15665-15673.
     DOI: 10.1002/anie.202004239
   
   for ALPB and GBSA implicit solvation:
   * S. Ehlert, M. Stahn, S. Spicher, S. Grimme, J. Chem. Theory Comput.,
     2021, 17, 4250-4261. DOI: 10.1021/acs.jctc.1c00471
   
   for ddCOSMO and CPCM-X implicit solvation:
   * M. Stahn, S. Ehlert, S. Grimme, J. Phys. Chem. A,
     2023, XX, XXXX-XXXX. DOI: 10.1021/acs.jpca.3c04382
   
   for DFT-D4:
   * E. Caldeweyher, C. Bannwarth and S. Grimme, J. Chem. Phys., 2017,
     147, 034112. DOI: 10.1063/1.4993215
   * E. Caldeweyher, S. Ehlert, A. Hansen, H. Neugebauer, S. Spicher,
     C. Bannwarth and S. Grimme, J. Chem. Phys., 2019, 150, 154122.
     DOI: 10.1063/1.5090222
   * E. Caldeweyher, J.-M. Mewes, S. Ehlert and S. Grimme, Phys. Chem. Chem. Phys.
     2020, 22, 8499-8512. DOI: 10.1039/D0CP00502A
   
   for sTDA-xTB:
   * S. Grimme and C. Bannwarth, J. Chem. Phys., 2016, 145, 054103.
     DOI: 10.1063/1.4959605
   
   in the mass-spec context:
   * V. Asgeirsson, C. Bauer and S. Grimme, Chem. Sci., 2017, 8, 4879.
     DOI: 10.1039/c7sc00601b
   * J. Koopman and S. Grimme, ACS Omega 2019, 4, 12, 15120-15133.
     DOI: 10.1021/acsomega.9b02011
   
   for metadynamics refer to:
   * S. Grimme, J. Chem. Theory Comput., 2019, 155, 2847-2862
     DOI: 10.1021/acs.jctc.9b00143
   
   for SPH calculations refer to:
   * S. Spicher and S. Grimme, J. Chem. Theory Comput., 2021, 17, 1701-1714
     DOI: 10.1021/acs.jctc.0c01306
   
   for ONIOM refer to:
   * C. Plett, A. Katbashev, S. Ehlert, S. Grimme, M. Bursch,
     Phys. Chem. Chem. Phys., 2023, 25, 17860-17868. DOI: 10.1039/D3CP02178E
   
   for DIPRO refer to:
   * J. Kohn, N. Gildemeister, S. Grimme, D. Fazzi, A. Hansen,
     J. Chem. Phys. 159, 144106 (2023). DOI: 10.1063/5.0167484
   
   for PTB refer to:
   * S. Grimme, M. Mueller, A. Hansen, J. Chem. Phys., 2023, 158, 124111.
     DOI: 10.1063/5.0137838
   
   with help from (in alphabetical order)
   P. Atkinson, C. Bannwarth, F. Bohle, G. Brandenburg, E. Caldeweyher,
   M. Checinski, S. Dohm, S. Ehlert, S. Ehrlich, M. Friede, T. Froitzheim,
   I. Gerasimov, C. Hölzer, A. Katbashev, J. Kohn, J. Koopman, C. Lavigne,
   S. Lehtola, F. März, M. Müller, F. Musil, H. Neugebauer, J. Pisarek,
   C. Plett, P. Pracht, F. Pultar, J. Seibert, P. Shushkov, S. Spicher,
   M. Stahn, M. Steiner, T. Strunk, J. Stückrath, T. Rose, and J. Unsleber
   
 * started run on 2026/05/23 at 08:14:07.364     
   ID    Z sym.   atoms
    1    7 N      1, 5, 10, 17, 23, 28, 35
    2    6 C      2, 3, 6-8, 11-14, 16, 20, 21, 24-26, 29, 31-34, 36-40
    3    8 O      4, 9, 15, 18, 19, 22, 27, 30
    4    1 H      41-70

           -------------------------------------------------
          |                Calculation Setup                |
           -------------------------------------------------

          program call               : /home/xchen/software/xtb-6.7.1-gxtb/bin/xtb /home/xchen/Test/benchmark/md_sampled/01_6_0109_n1/snap_0040.xyz --charge -1 --gxtb --norestart
          coordinate file            : /home/xchen/Test/benchmark/md_sampled/01_6_0109_n1/snap_0040.xyz
          omp threads                :                    48

core increment energy         -1.7791297691186E+03 Eh
dispersion energy              1.0245433781322E-02 Eh
molecular charge              -1.0000000000000E+00 e
number of electrons            2.1399999999800E+02 e
number of unpaired electrons   0.0000000000000E+00 e
wavefunction                   restricted
integral cutoff                2.6907767250513E+01 bohr
energy convergence             1.0000000000000E-06 Eh
density convergence            2.0000000000000E-05 e

------------------------------------------------------------
  cycle        total energy    energy error   density error
------------------------------------------------------------
      1     -1954.968618475  -1.7584909E+02   0.0000000E+00
      2     -1955.302735372  -3.3411690E-01   2.5556974E-02
      3     -1955.515050293  -2.1231492E-01   2.0127079E-02
      4     -1955.961269335  -4.4621904E-01   1.5927718E-02
      5     -1955.968889498  -7.6201621E-03   1.2092594E-03
      6     -1955.969391269  -5.0177120E-04   2.0743898E-04
      7     -1955.969439127  -4.7858520E-05   6.6343861E-05
      8     -1955.969442443  -3.3160149E-06   1.7116259E-05
      9     -1955.969442867  -4.2318865E-07   4.1476534E-06
------------------------------------------------------------

electronic energy             -1.7684991918171E+02 Eh
total energy                  -1.9559694428665E+03 Eh

Post processing:
 | Mayer-Wiberg bond orders
 | Molecular Multipole Moments

 total:                                   8.698 sec
 - increment                              0.000 sec (  0%)
 - repulsion                              0.019 sec (  0%)
 - dispersion                             0.233 sec (  2%)
 - coulomb                                0.136 sec (  1%)
 - exchange                               0.008 sec (  0%)
 - hamiltonian                            0.536 sec (  6%)
 - acp                                    0.211 sec (  2%)
 - spin polarization                      0.000 sec (  0%)
 - post processing                        0.575 sec (  6%)
 - scc                                    6.758 sec ( 77%)
 - coulomb gradient                       0.052 sec (  0%)
 - dispersion gradient                    0.020 sec (  0%)
 - exchange gradient                      0.120 sec (  1%)
 - repulsion gradient                     0.006 sec (  0%)
 - acp gradient                           0.229 sec (  2%)
 - hamiltonian gradient                   0.363 sec (  4%)
 - gradient                               0.790 sec (  9%)

         :::::::::::::::::::::::::::::::::::::::::::::::::::::
         ::                     SUMMARY                     ::
         :::::::::::::::::::::::::::::::::::::::::::::::::::::
         :: total energy           -1955.969442866529 Eh    ::
         :: gradient norm              0.336137294687 Eh/a0 ::
         :: HOMO-LUMO gap              5.710888105404 eV    ::
         ::.................................................::
         :: add. restraining           0.000000000000 Eh    ::
         :: total charge              -1.000000000000 e     ::
         :::::::::::::::::::::::::::::::::::::::::::::::::::::

           -------------------------------------------------
          |                Property Printout                |
           -------------------------------------------------

    * Orbital Energies and Occupations
------------------------------------------------------------------
      #    Occupation            Energy/Eh            Energy/eV
------------------------------------------------------------------
      1        2.0000           -1.2799839             -34.8301
    ...           ...                  ...                  ...
     95        2.0000           -0.3070686              -8.3558
     96        2.0000           -0.3043721              -8.2824
     97        2.0000           -0.2998258              -8.1587
     98        2.0000           -0.2988979              -8.1334
     99        2.0000           -0.2973579              -8.0915
    100        2.0000           -0.2794959              -7.6055
    101        2.0000           -0.2774456              -7.5497
    102        2.0000           -0.2740352              -7.4569
    103        2.0000           -0.2708762              -7.3709
    104        2.0000           -0.2506753              -6.8212
    105        2.0000           -0.1753649              -4.7719
    106        2.0000           -0.1621734              -4.4130
    107        2.0000           -0.1593258              -4.3355 (HOMO)
    108                          0.0505455               1.3754 (LUMO)
    109                          0.0790656               2.1515
    110                          0.0800397               2.1780
    111                          0.0833098               2.2670
    112                          0.0964986               2.6259
    113                          0.1023951               2.7863
    114                          0.1095450               2.9809
    115                          0.1223092               3.3282
    116                          0.1236213               3.3639
    117                          0.2144886               5.8365
    118                          0.2330905               6.3427
    ...                                ...                  ...
    190                          0.9330107              25.3885
------------------------------------------------------------------
               HL-Gap            0.2098713 Eh            5.7109 eV
------------------------------------------------------------------

Atomic charges and shell populations (in atomic units):
------------------------------------------------------
     #    Z                q          p(s)       p(p)
------------------------------------------------------
     1    7 N      -0.360558      1.363030   3.997528
     2    6 C      -0.098124      1.135516   2.962608
     3    6 C       0.406784      1.112004   2.481212
     4    8 O      -0.567971      1.852449   4.715522
     5    7 N      -0.327918      1.352104   3.975814
     6    6 C       0.000986      1.121854   2.877160
     7    6 C       0.441737      1.108107   2.450156
     8    6 C      -0.003056      1.112045   2.891011
     9    8 O      -0.504397      1.851149   4.653248
    10    7 N      -0.345589      1.365854   3.979735
    11    6 C      -0.165903      1.137476   3.028427
    12    6 C       0.412402      1.088524   2.499074
    13    6 C      -0.175224      1.148619   3.026604
    14    6 C      -0.060036      1.133602   2.926434
    15    8 O      -0.522782      1.845233   4.677548
    16    6 C       0.495486      1.079746   2.424768
    17    7 N      -0.324001      1.360166   3.963835
    18    8 O      -0.676592      1.863015   4.813577
    19    8 O      -0.727243      1.868383   4.858860
    20    6 C       0.405108      1.102920   2.491972
    21    6 C      -0.021295      1.125736   2.895559
    22    8 O      -0.534425      1.854405   4.680020
    23    7 N      -0.355691      1.365511   3.990180
    24    6 C      -0.280554      1.178528   3.102026
    25    6 C       0.422441      1.104674   2.472885
    26    6 C      -0.076775      1.129424   2.947351
    27    8 O      -0.499322      1.852060   4.647262
    28    7 N      -0.360064      1.364887   3.995177
    29    6 C       0.425029      1.096931   2.478040
    30    8 O      -0.543110      1.850237   4.692873
    31    6 C      -0.128466      1.162937   2.965529
    32    6 C      -0.085214      1.141088   2.944126
    33    6 C      -0.014989      1.161960   2.853029
    34    6 C      -0.039970      1.133148   2.906822
    35    7 N      -0.292123      1.404398   3.887726
    36    6 C       0.059527      1.093030   2.847443
    37    6 C      -0.108999      1.162295   2.946704
    38    6 C      -0.099516      1.154799   2.944717
    39    6 C      -0.118623      1.152125   2.966499
    40    6 C      -0.122165      1.147922   2.974242
    41    1 H       0.253305      0.746695
    42    1 H       0.156422      0.843578
    43    1 H       0.113072      0.886928
    44    1 H       0.267365      0.732635
    45    1 H       0.134685      0.865315
    46    1 H       0.134002      0.865998
    47    1 H       0.261413      0.738587
    48    1 H       0.099414      0.900586
    49    1 H       0.131370      0.868630
    50    1 H       0.080118      0.919882
    51    1 H       0.067552      0.932448
    52    1 H       0.110750      0.889250
    53    1 H       0.112440      0.887560
    54    1 H       0.274306      0.725694
    55    1 H       0.128239      0.871761
    56    1 H       0.270353      0.729647
    57    1 H       0.109602      0.890398
    58    1 H       0.093781      0.906219
    59    1 H       0.117216      0.882784
    60    1 H       0.122623      0.877377
    61    1 H       0.131475      0.868525
    62    1 H       0.294355      0.705645
    63    1 H       0.104225      0.895775
    64    1 H       0.133088      0.866912
    65    1 H       0.119338      0.880662
    66    1 H       0.256354      0.743646
    67    1 H       0.109665      0.890335
    68    1 H       0.079995      0.920005
    69    1 H       0.099619      0.900381
    70    1 H       0.105054      0.894946
------------------------------------------------------


Wiberg/Mayer (AO) data.
largest (>0.10) Wiberg bond orders for each atom

 ---------------------------------------------------------------------------
     #   Z sym  total        # sym  WBO       # sym  WBO       # sym  WBO
 ---------------------------------------------------------------------------
     1   7 N    3.273 --     7 C    1.105     2 C    1.025    41 O    0.904
                             9 C    0.147
     2   6 C    3.928 --     1 N    1.025    43 O    0.955    42 O    0.937
                             3 C    0.902
     3   6 C    3.852 --     4 C    1.616     5 N    1.257     2 C    0.902
     4   8 C    1.913 --     3 C    1.616     5 N    0.156
     5   7 N    3.350 --     3 C    1.257     6 C    0.947    44 O    0.899
                             4 C    0.156
     6   6 C    3.929 --    31 C    0.960    29 C    0.949     5 N    0.947
                            45 O    0.945
     7   6 C    3.844 --     9 C    1.727     1 N    1.105     8 C    0.926
     8   6 C    3.923 --    11 C    0.969    10 N    0.962    46 O    0.934
                             7 C    0.926
     9   8 C    2.004 --     7 C    1.727     1 N    0.147
    10   7 N    3.328 --    12 C    1.197     8 C    0.962    47 O    0.894
                            15 C    0.179
    11   6 C    3.953 --    13 C    1.008     8 C    0.969    48 O    0.955
                            49 O    0.941
    12   6 C    3.883 --    15 C    1.680    10 N    1.197    14 C    0.950
    13   6 C    3.964 --    11 C    1.008    51 O    0.960    50 O    0.952
                            16 C    0.936
    14   6 C    3.924 --    17 N    0.982    12 C    0.950    53 O    0.945
                            52 O    0.943
    15   8 C    1.976 --    12 C    1.680    10 N    0.179
    16   6 C    3.875 --    18 C    1.497    19 C    1.421    13 C    0.936
    17   7 N    3.334 --    20 C    1.212    14 C    0.982    54 O    0.885
                            22 C    0.171
    18   8 C    1.767 --    16 C    1.497    19 C    0.200
    19   8 C    1.694 --    16 C    1.421    18 C    0.200
    20   6 C    3.874 --    22 C    1.665    17 N    1.212    21 C    0.923
    21   6 C    3.938 --    23 N    0.986    24 C    0.982    55 O    0.939
                            20 C    0.923
    22   8 C    1.947 --    20 C    1.665    17 N    0.171
    23   7 N    3.272 --    25 C    1.137    21 C    0.986    56 O    0.893
                            27 C    0.155
    24   6 C    3.949 --    21 C    0.982    58 O    0.978    59 O    0.971
                            57 O    0.971
    25   6 C    3.861 --    27 C    1.725    23 N    1.137    26 C    0.933
    26   6 C    3.932 --    28 N    0.999    60 O    0.949    61 O    0.935
                            25 C    0.933
    27   8 C    2.004 --    25 C    1.725    23 N    0.155
    28   7 N    3.284 --    29 C    1.173    26 C    0.999    62 O    0.869
                            30 C    0.155
    29   6 C    3.871 --    30 C    1.672    28 N    1.173     6 C    0.949
    30   8 C    1.943 --    29 C    1.672    28 N    0.155
    31   6 C    3.945 --    32 C    0.994     6 C    0.960    63 O    0.955
                            64 O    0.951
    32   6 C    3.954 --    33 C    1.662    34 C    1.124    31 C    0.994
    33   6 C    3.921 --    32 C    1.662    35 N    1.132    65 O    0.949
    34   6 C    3.971 --    37 C    1.346    36 C    1.300    32 C    1.124
    35   7 N    3.331 --    33 C    1.132    36 C    1.093    66 O    0.894
    36   6 C    3.951 --    38 C    1.373    34 C    1.300    35 N    1.093
    37   6 C    3.963 --    39 C    1.459    34 C    1.346    67 O    0.953
                            38 C    0.126
    38   6 C    3.962 --    40 C    1.446    36 C    1.373    68 O    0.953
                            37 C    0.126
    39   6 C    3.966 --    37 C    1.459    40 C    1.411    69 O    0.957
    40   6 C    3.968 --    38 C    1.446    39 C    1.411    70 O    0.958
    41   1 O    0.936 --     1 N    0.904
    42   1 O    0.976 --     2 C    0.937
    43   1 O    0.987 --     2 C    0.955
    44   1 O    0.929 --     5 N    0.899
    45   1 O    0.982 --     6 C    0.945
    46   1 O    0.982 --     8 C    0.934
    47   1 O    0.932 --    10 N    0.894
    48   1 O    0.990 --    11 C    0.955
    49   1 O    0.983 --    11 C    0.941
    50   1 O    0.994 --    13 C    0.952
    51   1 O    0.995 --    13 C    0.960
    52   1 O    0.988 --    14 C    0.943
    53   1 O    0.987 --    14 C    0.945
    54   1 O    0.925 --    17 N    0.885
    55   1 O    0.984 --    21 C    0.939
    56   1 O    0.927 --    23 N    0.893
    57   1 O    0.988 --    24 C    0.971
    58   1 O    0.991 --    24 C    0.978
    59   1 O    0.986 --    24 C    0.971
    60   1 O    0.985 --    26 C    0.949
    61   1 O    0.983 --    26 C    0.935
    62   1 O    0.913 --    28 N    0.869
    63   1 O    0.989 --    31 C    0.955
    64   1 O    0.982 --    31 C    0.951
    65   1 O    0.986 --    33 C    0.949
    66   1 O    0.934 --    35 N    0.894
    67   1 O    0.988 --    37 C    0.953
    68   1 O    0.994 --    38 C    0.953
    69   1 O    0.990 --    39 C    0.957
    70   1 O    0.989 --    40 C    0.958
 ---------------------------------------------------------------------------

Topologies differ in total number of bonds
Writing topology from bond orders to xtbtopo.mol

Atomic dipole moments (in atomic units):
---------------------------------------------------------
     #    Z                 x            y            z
---------------------------------------------------------
           total     4.766843    10.542814     9.770279
---------------------------------------------------------
         |total|    15.143713    38.491480 Debye


           -------------------------------------------------
          | TOTAL ENERGY            -1955.969442866529 Eh   |
          | GRADIENT NORM               0.336137294687 Eh/α |
           -------------------------------------------------

------------------------------------------------------------------------
 * finished run on 2026/05/23 at 08:14:17.258     
------------------------------------------------------------------------
 total:
 * wall-time:     0 d,  0 h,  0 min,  9.893 sec
 *  cpu-time:     0 d,  0 h,  0 min, 17.128 sec
 * ratio c/w:     1.731 speedup
 SCF:
 * wall-time:     0 d,  0 h,  0 min,  9.584 sec
 *  cpu-time:     0 d,  0 h,  0 min, 16.930 sec
 * ratio c/w:     1.767 speedup

normal termination of xtb
