89
pH=6.67 total_charge=0 partial_charge_sum=+0.000000 method=gasteiger energy=-438.38453850
N   2.64377082  2.23814547 -1.11171206
C   2.76779895  1.78504660 -2.45573104
C   2.63729149  0.30817480 -2.55688557
O   2.05690526 -0.18753094 -3.45411947
N   3.04303194 -0.36235191 -1.41008908
C   2.66821915 -1.73214846 -1.35917520
C   3.69831211  3.14728741 -0.56771584
C   1.45730009  2.17577183 -0.46288111
C   4.52283155  3.48533917 -1.88621005
C   1.53197706  2.62018237  1.01268400
O   0.40215799  1.70748537 -0.81487760
C   4.06740823  2.49233933 -2.96266892
N   0.29840004  3.13986710  1.42922573
C   1.97643825  1.49317033  1.90758913
C  -0.17587296  4.48035209  1.15651539
S   2.37160470  1.94910373  3.57566428
C  -1.64378748  4.57234400  1.67383671
O   0.46032838  5.29004767  0.59049523
N  -2.51256591  3.91356113  0.68996803
C  -2.68848596  2.58630330  0.68657522
C  -3.60303576  2.19848326 -0.57038640
O  -2.45046327  1.87548430  1.62138522
N  -3.50834635  0.76201872 -0.69345673
C  -4.99900827  2.66530444 -0.08809821
C  -4.33544443  0.04160603 -1.52067985
C  -4.24135952 -1.49218176 -1.50427542
O  -4.92776055  0.53131731 -2.45954245
N  -3.16192092 -2.11460995 -0.81514451
C  -5.54243929 -2.19285258 -0.92439668
C  -1.85494781 -2.14046354 -1.30492519
O  -6.68260935 -1.83079520 -1.69921346
C  -5.77757740 -1.83431807  0.52783241
C  -0.94402636 -3.02817171 -0.38454388
O  -1.52455062 -1.62460658 -2.27596875
N   0.46107200 -2.85358936 -0.88115820
C  -1.10527281 -2.82820213  1.07099407
C   1.24015127 -1.69845455 -0.61506294
O  -1.43216138 -1.50412274  1.28986067
C  -0.04805091 -3.37714517  1.98903097
O   1.00278826 -0.93786935  0.26452223
C   3.59417531 -2.58662344 -0.41436722
C   4.77990676 -3.40253308 -0.98266781
C   4.02356460 -1.78428362  0.80356077
C   4.23321446 -2.72045504  1.98165721
H   1.92997652  2.12931244 -3.08535069
H   3.34103356  0.06449047 -0.62893100
H   2.71619093 -2.18829103 -2.39437837
H   3.22639252  4.00750213 -0.16544766
H   4.04956793  2.63192838  0.25074794
H   4.02382845  4.39072764 -2.09310985
H   5.64084358  3.49705906 -1.70445366
H   2.22342120  3.48211144  1.12634389
H   3.91963559  3.00789595 -3.93865112
H   4.74726717  1.50120360 -3.20386163
H  -0.42134928  2.47463273  1.57516189
H   1.22332664  0.77628081  1.91485448
H   2.83465717  0.98494157  1.48964277
H   1.13173871  1.96003788  3.89941763
H  -1.81998651  5.62771033  1.79240322
H  -1.83025255  4.07037969  2.62076183
H  -2.69010111  4.42256373 -0.13010060
H  -3.34411195  2.70224447 -1.47365580
H  -3.14198444  0.24257145  0.03363359
H  -5.75620402  2.60916671 -0.91442192
H  -4.82066721  3.67624228  0.47327854
H  -5.38367215  1.99622445  0.65984788
H  -3.96855316 -1.79411661 -2.52886869
H  -3.33806446 -2.35722457  0.14929982
H  -5.23394245 -3.25852495 -1.02977975
H  -6.99045418 -0.98148471 -1.52943553
H  -5.12849951 -1.09699522  0.86280623
H  -6.74383801 -1.41482536  0.55962512
H  -5.92731010 -2.69348356  1.20468127
H  -1.10487969 -4.03252474 -0.83982553
H   0.41335008 -3.10897092 -1.87207726
H  -2.02579779 -3.34433514  1.34873379
H  -0.54770994 -1.00926258  1.38988470
H   0.90860048 -3.25047170  1.60952710
H   0.06004739 -2.92202501  3.02569880
H  -0.24268836 -4.47317644  2.09580867
H   2.86341654 -3.36913378 -0.04607159
H   4.59283688 -3.86744541 -1.88678057
H   5.08270638 -4.23569189 -0.34421041
H   5.65082991 -2.77896435 -1.10449080
H   3.31378896 -0.98739217  1.08176867
H   5.02156730 -1.41083034  0.50259457
H   4.74514334 -2.05306381  2.71499882
H   3.41677520 -3.21486696  2.47811711
H   5.00326657 -3.46289436  1.86240189
