89
pH=6.67 total_charge=0 partial_charge_sum=+0.000000 method=gasteiger energy=-439.30641350
N   2.91600229  2.18476062 -0.94062714
C   3.04261329  1.76131045 -2.33415587
C   2.63590135  0.26388171 -2.57532353
O   2.52091259 -0.23525882 -3.71900858
N   2.42017997 -0.38221549 -1.36591768
C   2.04266589 -1.77659449 -1.42347564
C   4.28867447  2.59928545 -0.42464735
C   1.75800591  2.38183501 -0.26263378
C   4.91619227  3.12833738 -1.76779580
C   1.67813141  2.74331316  1.24477510
O   0.67046698  2.07094373 -0.74652132
C   4.53430201  1.98118828 -2.69449486
N   0.43679532  3.32868991  1.59652194
C   1.91843045  1.42451814  2.01872339
C   0.01632886  4.47948226  0.99394463
S   2.48257077  1.64827224  3.62629482
C  -1.38195331  4.84000884  1.16463274
O   0.78728425  5.12097227  0.32760406
N  -2.10040620  4.08732284  0.13784567
C  -2.54484972  2.81671187  0.35283964
C  -3.06109357  2.22057180 -0.91926644
O  -2.61066366  2.42892499  1.46462254
N  -3.40965784  0.83991092 -0.59045463
C  -4.37698953  3.03944888 -1.36479457
C  -4.03380866  0.12987249 -1.52202697
C  -4.50008862 -1.29461802 -1.13169801
O  -4.19683911  0.51083904 -2.69177550
N  -3.42594119 -1.98475393 -0.30690527
C  -5.86555582 -1.31732493 -0.38728541
C  -2.56142070 -2.77604877 -1.04494997
O  -6.76800920 -0.37222161 -0.90831501
C  -5.71878883 -0.70974954  1.09942981
C  -1.32638580 -3.20362358 -0.20588324
O  -2.66308498 -3.12099469 -2.18685258
N  -0.06825024 -2.85725489 -0.93301061
C  -1.35375457 -3.11643286  1.26184367
C   0.80055049 -1.97878100 -0.48145685
O  -1.71138210 -1.85214669  1.87782174
C  -0.21780921 -3.79675645  1.91166375
O   0.57367209 -1.27584432  0.51839755
C   3.25403625 -2.62635321 -0.87548213
C   4.37756530 -2.46714627 -1.93273692
C   3.72906257 -2.11744018  0.56184878
C   4.83672464 -2.92489229  1.18260342
H   2.41004075  2.42428927 -2.91048377
H   2.61335819  0.16944336 -0.59077498
H   1.78787490 -2.04324570 -2.49165600
H   4.26682000  3.43767585  0.28565772
H   4.90961255  1.76057201 -0.03162188
H   4.41243764  4.08126210 -1.98899862
H   6.03778103  3.34979255 -1.78559884
H   2.49574196  3.48535451  1.39484850
H   4.66034306  2.19752855 -3.70102867
H   5.13273506  1.07001165 -2.44918787
H  -0.33003629  2.79061117  2.09286169
H   0.96147126  0.79213128  2.05542813
H   2.60525124  0.79119892  1.44568318
H   2.56172939  2.98945327  3.67443072
H  -1.32692524  5.90395660  1.07576058
H  -1.78127925  4.58732384  2.14067405
H  -1.88692261  4.17355451 -0.81102843
H  -2.27197821  2.29341760 -1.69111835
H  -3.55887924  0.75999711  0.41263393
H  -5.04566842  2.27826937 -1.77182402
H  -4.14669260  3.90539554 -2.07188047
H  -4.75867985  3.53213330 -0.39772313
H  -4.48142988 -1.99586203 -1.96607488
H  -3.01704363 -1.53126781  0.46821317
H  -6.34156111 -2.27694355 -0.22356025
H  -6.58149977 -0.26551659 -1.91489643
H  -4.84566802 -1.28194244  1.51544738
H  -5.54658874  0.30735250  0.97341285
H  -6.64279901 -0.95358743  1.53722319
H  -1.39900116 -4.27754700 -0.34988562
H  -0.07032961 -3.13826103 -1.93767629
H  -2.17758256 -3.78871788  1.42391269
H  -0.97633817 -1.24045730  1.82897616
H   0.77241804 -3.22773779  1.67506767
H  -0.36048860 -4.05851340  2.98841869
H   0.03609764 -4.73854032  1.47374578
H   2.98837433 -3.67427872 -0.93521692
H   3.90201059 -1.95159259 -2.78625094
H   4.88086412 -3.39906370 -2.27605360
H   5.24167516 -1.92855727 -1.58685539
H   2.99398408 -2.37971983  1.28953977
H   3.92009640 -1.07884642  0.38279229
H   5.14767661 -2.55438563  2.13232757
H   4.72763837 -4.10550661  1.31424838
H   5.75401725 -2.88877233  0.55635490
