89
pH=6.67 total_charge=0 partial_charge_sum=+0.000000 method=gasteiger energy=-438.99391350
N   2.79101693  2.11751871 -1.06533216
C   2.70939041  1.69969715 -2.45126322
C   2.41402512  0.23242813 -2.71260201
O   2.32778055 -0.22912892 -3.89886814
N   2.29888566 -0.58525828 -1.64066751
C   1.95145799 -1.92414662 -1.58562066
C   4.05812328  2.92304963 -0.84472146
C   1.64910691  2.67973239 -0.40864600
C   4.39147324  3.39747316 -2.20353742
C   1.68331388  2.86822427  1.09691145
O   0.66117523  2.90022008 -1.06406632
C   4.14666539  2.20121597 -3.07241956
N   0.36554697  3.21736493  1.50299432
C   2.02452617  1.54664894  1.88741085
C  -0.06983622  4.53866166  1.29060047
S   2.45556625  1.71714232  3.68382473
C  -1.59211494  4.71191875  1.32042478
O   0.64649761  5.50684279  1.16341677
N  -2.22606135  4.12643475  0.12524168
C  -2.59294643  2.88277897  0.19728173
C  -3.43173020  2.28000505 -0.96504096
O  -2.43252434  2.13296584  1.20231930
N  -3.20780159  0.88410477 -0.72713063
C  -4.88240199  2.61646513 -0.88820060
C  -3.71701670  0.01529121 -1.60978605
C  -4.07418063 -1.41937969 -1.02650720
O  -4.04241095  0.35957787 -2.76437296
N  -2.98474056 -1.77169929 -0.10406942
C  -5.35527428 -1.44585909 -0.33728944
C  -2.09923852 -2.59706579 -0.62302623
O  -6.23564585 -2.04031191 -1.19963598
C  -6.04501909 -0.25374778  0.36543929
C  -1.10630295 -3.39968284  0.36612793
O  -1.96332144 -2.84516072 -1.82046290
N   0.20857095 -3.32182382 -0.29768178
C  -1.22295389 -3.08517611  1.86130313
C   0.75230643 -2.06974944 -0.60382696
O  -1.14832792 -1.65253672  1.99407305
C  -0.22148682 -3.84513198  2.66176846
O   0.27457018 -1.05032353 -0.06447828
C   3.15594255 -2.79507531 -0.88538125
C   4.34633949 -2.60972710 -1.86609640
C   3.39447637 -2.25038226  0.53349244
C   4.79507452 -2.41552621  1.07393602
H   1.97796565  2.34382825 -2.91114688
H   2.00749973 -0.04876798 -0.87731181
H   1.64331635 -2.26737466 -2.56491583
H   3.75134894  3.66091270 -0.06114610
H   4.76525986  2.19989466 -0.49153606
H   3.60642409  4.08936828 -2.48223698
H   5.37559270  3.86795150 -2.29495370
H   2.30302682  3.67484991  1.43678717
H   4.26544633  2.37707964 -4.16843403
H   4.96825656  1.46850239 -2.87869205
H  -0.32992023  2.46671821  1.60162632
H   1.21663976  0.80504423  1.67077412
H   2.87601640  1.09931898  1.47539561
H   1.16181463  1.71483107  4.15071430
H  -1.80775630  5.75128478  1.25383042
H  -1.97410718  4.09412434  2.18486274
H  -2.00191414  4.49325464 -0.79809208
H  -2.93512489  2.55501967 -1.93395487
H  -3.07594626  0.79659053  0.30438492
H  -5.42528031  2.06898675 -1.72147510
H  -4.95104054  3.69600646 -1.29369361
H  -5.43594890  2.43205078  0.05000432
H  -4.11815024 -2.12045294 -1.82476191
H  -2.94563370 -1.73666527  0.93587868
H  -5.26004260 -2.27405999  0.37107285
H  -6.18459920 -1.68827384 -2.12406967
H  -5.49412285  0.12707318  1.27010213
H  -6.17888630  0.63052291 -0.30849645
H  -7.00229326 -0.59936734  0.64464971
H  -1.55345593 -4.38664183  0.20708238
H   0.44295938 -3.97462783 -0.98918578
H  -2.12936439 -3.40154919  2.30261248
H  -0.59225181 -1.41232787  1.20168364
H   0.77400382 -3.71387179  2.16575353
H  -0.12228317 -3.42530170  3.65543224
H  -0.30191110 -4.92443952  2.65116414
H   2.88051042 -3.83418513 -0.98271409
H   4.21937858 -3.22235695 -2.70288227
H   5.29014417 -3.05787593 -1.54797206
H   4.57128355 -1.59567856 -2.09167392
H   2.71267183 -2.38959814  1.40212139
H   3.29304429 -1.15797647  0.24707611
H   5.06700633 -1.54101558  1.53375005
H   4.81290322 -3.15703615  1.88029493
H   5.54311629 -2.51856002  0.25974423
