89
pH=6.67 total_charge=0 partial_charge_sum=+0.000000 method=gasteiger energy=-438.04078850
N   2.74811619  2.10386578 -0.97491002
C   2.59823954  1.70238243 -2.31795791
C   2.46428279  0.15438229 -2.61265893
O   2.41376001 -0.34108120 -3.68593669
N   2.60762556 -0.53788490 -1.48069387
C   2.15026051 -1.94437455 -1.42946898
C   3.90790315  3.00340667 -0.81055845
C   1.55553405  2.43194340 -0.33242571
C   3.95889517  3.68580475 -2.23222852
C   1.57082805  2.67460959  1.17044710
O   0.55730362  2.62895509 -0.99598476
C   3.78892494  2.43661092 -3.09351514
N   0.20608710  3.17542697  1.62118836
C   1.96620248  1.28793172  1.81161373
C  -0.00218107  4.57311786  1.34024782
S   2.48888368  1.43971809  3.45169376
C  -1.44269221  5.05662674  1.19002007
O   0.88945584  5.39510391  1.14816131
N  -2.21143641  4.34858702  0.18285617
C  -2.66200635  3.04983887  0.39252019
C  -3.39729018  2.41094793 -0.78546904
O  -2.52792182  2.39529937  1.39306978
N  -3.32819939  0.94558990 -0.50778073
C  -4.76813820  3.03974520 -0.86389759
C  -3.78517759  0.01871424 -1.54424150
C  -4.14868399 -1.52445142 -1.08070984
O  -3.99026101  0.34088241 -2.71823058
N  -3.05994452 -2.07468797 -0.26685057
C  -5.57483775 -1.59527186 -0.54881758
C  -1.89808404 -2.58251440 -0.81980443
O  -6.44396756 -2.00372946 -1.52101294
C  -5.97726988 -0.34343516  0.14222211
C  -0.95750740 -3.24760090  0.23177520
O  -1.77501766 -2.75655148 -1.99102293
N   0.37948591 -3.24211767 -0.28006427
C  -1.15995607 -3.07471849  1.75470313
C   0.88163488 -1.99115625 -0.64627867
O  -1.28520131 -1.70127765  2.17521226
C  -0.28199274 -3.89846822  2.58322793
O   0.29627137 -0.91598225 -0.26223533
C   3.30562498 -2.93380477 -0.88475241
C   4.49171793 -2.67809734 -1.86170889
C   3.54002466 -2.48657135  0.57315250
C   4.86298463 -2.28823942  1.21389202
H   1.58107052  2.01119579 -2.60143607
H   2.35615620 -0.06089379 -0.63225714
H   1.84245216 -2.21290570 -2.49684293
H   3.68965415  3.79489409 -0.00839940
H   4.78557620  2.41102405 -0.63299783
H   3.07416806  4.29353397 -2.24439794
H   4.82529095  4.24032374 -2.54625135
H   2.22377361  3.51123671  1.41812472
H   3.52098539  2.72042565 -4.16154728
H   4.68608147  1.76113954 -3.04714290
H  -0.64754772  2.77945310  1.35350998
H   1.16453967  0.49554840  1.61890569
H   2.73682114  0.89073150  1.25646720
H   1.45069108  2.01241941  3.93344203
H  -1.29515237  6.06903712  0.91114233
H  -2.11032820  4.79187795  2.05574592
H  -1.75276522  4.58269399 -0.70418270
H  -2.94316430  2.63819180 -1.73725294
H  -2.92362041  0.72216501  0.40365309
H  -5.57335234  2.57955739 -1.47464454
H  -4.77995089  4.15304560 -1.31634525
H  -5.31518806  3.16649032  0.09762705
H  -4.15797997 -2.19782953 -1.92967962
H  -2.96570943 -1.62140024  0.69124685
H  -5.52736205 -2.44859848  0.18206765
H  -7.15456993 -1.44052141 -1.52159566
H  -5.23123817  0.22450169  0.73679610
H  -6.18329383  0.36654356 -0.69407829
H  -6.87245808 -0.45807215  0.71749081
H  -1.32839715 -4.33003855  0.13006892
H   0.72746029 -4.01555761 -0.83238634
H  -2.17811794 -3.37130262  1.92975144
H  -0.53346461 -1.19400090  1.82986017
H   0.76199163 -3.56285817  2.71907358
H  -0.73068697 -3.93434101  3.59265566
H  -0.34626751 -4.91839776  2.13447116
H   2.93005593 -3.96206279 -0.91711060
H   4.12597794 -2.18566044 -2.70491628
H   4.98486964 -3.61571851 -2.22990333
H   5.25591578 -1.97967628 -1.43835713
H   2.88476418 -3.03421727  1.36401402
H   3.02468253 -1.51573457  0.84259041
H   4.70938002 -1.93933342  2.21546356
H   5.12904935 -3.30041725  1.43660050
H   5.64855050 -1.57093672  0.86551156
