89
pH=6.67 total_charge=0 partial_charge_sum=+0.000000 method=gasteiger energy=-438.26735100
N   2.96782161  2.05210292 -0.94538564
C   2.95797247  1.72286797 -2.32895659
C   2.51429372  0.29071685 -2.65188865
O   2.43442552 -0.00900784 -3.81454013
N   2.48660602 -0.43449567 -1.45910148
C   2.04063647 -1.80913973 -1.44818233
C   4.12347384  2.79388038 -0.47086509
C   1.74056864  2.41668850 -0.36093134
C   4.87478873  3.05074475 -1.78399055
C   1.69491195  2.68451107  1.17127326
O   0.66289446  2.24627292 -0.92212361
C   4.37815955  1.89241263 -2.64717545
N   0.43840739  3.30927489  1.63776807
C   2.01075682  1.42643131  1.98589826
C   0.10374516  4.52105611  1.13213317
S   2.33298174  1.70264858  3.77486451
C  -1.33823842  4.89390490  1.19703360
O   0.90587884  5.24088339  0.53652517
N  -1.92377856  4.02262267  0.15061531
C  -2.55770876  2.82837842  0.29999239
C  -3.08781625  2.34834765 -0.96685122
O  -2.77513249  2.33138329  1.41198168
N  -3.53804843  0.90084506 -0.45992638
C  -4.18850953  3.34183908 -1.18705761
C  -3.96498411  0.06851918 -1.45182205
C  -4.40896100 -1.28442327 -1.11779408
O  -4.16908844  0.41706046 -2.67051040
N  -3.41692069 -2.06713132 -0.30514694
C  -5.88303749 -1.37629198 -0.30805799
C  -2.46675971 -2.74815002 -1.05698177
O  -6.81747409 -0.66785090 -1.04877059
C  -5.76147929 -0.92724067  1.13780463
C  -1.27622010 -3.38758172 -0.20455708
O  -2.41953020 -2.74983297 -2.26072352
N  -0.04212426 -2.80940243 -0.74153173
C  -1.43848712 -3.32463385  1.27437030
C   0.80720410 -1.80527352 -0.50987051
O  -1.65915595 -1.97236018  1.69602043
C  -0.25391957 -3.91932387  1.95492340
O   0.78427713 -1.09824807  0.53330011
C   3.16060676 -2.66558887 -0.85333657
C   4.28635576 -2.64631501 -1.90857746
C   3.74699505 -2.08155200  0.50197700
C   4.89664030 -2.91390460  0.95194278
H   2.20358252  2.25329350 -3.00670551
H   2.12554291  0.00248197 -0.63464825
H   1.72587403 -2.04952963 -2.45183473
H   3.61723894  3.64346787  0.00641804
H   4.66222034  2.24047485  0.34631884
H   4.50633894  3.97914425 -2.24217511
H   5.94980744  3.16171113 -1.71923466
H   2.45018466  3.49596760  1.37424627
H   4.62703266  1.95920830 -3.72511192
H   4.90449143  0.91367152 -2.35143933
H  -0.32920264  2.70743952  1.63418367
H   1.19999267  0.71049543  2.00619781
H   2.81279691  0.90957901  1.49655058
H   3.14610922  2.84939110  3.68207667
H  -1.49842153  5.94719334  1.00505683
H  -1.71039025  4.50299316  2.15740023
H  -1.74995152  4.32270944 -0.79363105
H  -2.22201947  2.24733866 -1.68207547
H  -3.53851246  0.54526044  0.50461572
H  -4.76794374  3.25180385 -2.11203109
H  -3.58734002  4.23730989 -1.38112110
H  -5.00238542  3.55962353 -0.44085855
H  -4.53704367 -1.90644400 -2.07980475
H  -3.20573436 -1.96546224  0.69931737
H  -5.99117913 -2.49140958 -0.48061201
H  -6.69536182 -0.79481087 -2.02674265
H  -4.91829589 -1.38637508  1.74972076
H  -5.68733337  0.17592733  1.23976278
H  -6.67890536 -1.26332328  1.67889374
H  -1.25508164 -4.51641626 -0.35341785
H   0.23890962 -3.33404514 -1.53749746
H  -2.33789771 -3.86671695  1.41956700
H  -0.97127701 -1.54503143  1.23963934
H   0.60251691 -3.24148848  1.65604096
H  -0.26290757 -3.76137057  3.05624633
H  -0.15105290 -4.99573131  1.54164865
H   2.83538125 -3.65374978 -0.52558798
H   3.89239436 -2.56032052 -3.01167212
H   4.77294782 -3.56482622 -1.86355203
H   4.94433858 -1.76696974 -1.72406858
H   2.86468527 -1.91230820  1.16904472
H   4.13448096 -1.10012543  0.59326840
H   4.84013358 -2.71259607  2.01939743
H   4.57823960 -4.03265776  0.78438584
H   5.84025800 -2.70611706  0.45860509
