89
pH=6.67 total_charge=0 partial_charge_sum=+0.000000 method=gasteiger energy=-439.05641350
N   2.73446212  2.24955692 -1.07589710
C   2.70647572  1.82030485 -2.46509789
C   2.35178682  0.38414029 -2.66243215
O   2.46375570 -0.02452829 -3.81676099
N   2.04185594 -0.31090914 -1.52685479
C   1.85502508 -1.79450600 -1.41392250
C   4.15476939  2.50709843 -0.78423381
C   1.59626787  2.59848041 -0.41907866
C   4.79633959  2.91256732 -2.08072171
C   1.76990555  3.07921078  1.00788646
O   0.56738716  2.38934962 -0.98635212
C   4.06250297  2.09023268 -3.06752426
N   0.40192088  3.50561139  1.46268742
C   2.31562948  1.82608779  1.75446054
C   0.01902663  4.82338777  1.41738198
S   2.24645283  1.83298454  3.58246056
C  -1.54186918  4.90839896  1.35067178
O   0.88619983  5.66603924  1.19430357
N  -2.04643926  4.16006119  0.18210786
C  -2.53879697  2.87671046  0.26354606
C  -3.09382578  2.22602493 -1.04932926
O  -2.39297847  2.28303693  1.33729463
N  -3.26631828  0.78179776 -0.90136448
C  -4.39424510  2.98737956 -1.22953521
C  -4.01023495 -0.05524453 -1.67309419
C  -4.10010768 -1.54908117 -1.16882052
O  -4.62274204  0.23092467 -2.71132646
N  -2.99119994 -1.83393930 -0.23818034
C  -5.41823636 -1.88129189 -0.34634559
C  -2.04818524 -2.71093669 -0.74188482
O  -6.43560554 -2.07024918 -1.38750962
C  -5.80750085 -0.74152029  0.55692983
C  -1.13025939 -3.44606656  0.19972460
O  -1.86308247 -2.94276331 -1.92407419
N   0.17924815 -3.24642483 -0.36943833
C  -1.25151121 -3.05893799  1.69473837
C   0.78264096 -2.07643790 -0.46074996
O  -1.49082093 -1.71784903  2.02274304
C  -0.05369522 -3.76345374  2.57793497
O   0.46301551 -1.14310283  0.31097240
C   3.07504957 -2.53835772 -0.85682276
C   4.24878213 -2.84463939 -1.80308108
C   3.56478183 -1.82886187  0.41163465
C   4.46784180 -2.65479288  1.33514867
H   1.91426731  2.38652465 -2.92362384
H   1.53655888  0.25325520 -0.86986328
H   1.53633942 -2.16931017 -2.36111690
H   4.05433317  3.32400606 -0.02788580
H   4.62067197  1.64649749 -0.32242400
H   4.53664268  3.97494812 -2.25219294
H   5.88276996  2.68828723 -2.13817129
H   2.48837122  3.89062627  1.15276579
H   3.98767744  2.54578112 -4.03322192
H   4.34227942  1.02808231 -3.15664928
H  -0.36425646  2.83767310  1.59404717
H   1.52459969  1.06011090  1.52895512
H   3.29391246  1.43026964  1.40716257
H   0.92249773  1.65621193  3.85838698
H  -1.94549668  5.89058722  1.24669693
H  -1.91002663  4.53596470  2.32968693
H  -1.72333794  4.46243083 -0.69302992
H  -2.31500035  2.42529608 -1.82091953
H  -2.92063460  0.32755314 -0.11243681
H  -4.59791990  3.11922800 -2.29259342
H  -4.51269626  3.98233717 -0.74322855
H  -5.25112332  2.52255020 -0.77103366
H  -3.98276510 -2.10777690 -2.07249108
H  -3.08177454 -1.63772372  0.77381726
H  -5.53630566 -2.81615982  0.18377945
H  -7.06337889 -1.37757284 -1.49979624
H  -5.04471347 -0.67875787  1.43415618
H  -5.95566122  0.17070885  0.03885454
H  -6.68461534 -1.04783378  1.11387472
H  -1.46802910 -4.51228344  0.19159478
H   0.18020134 -3.84885856 -1.17618998
H  -2.05836829 -3.54004435  2.20325180
H  -0.69038833 -1.25170483  1.82507544
H   0.98705056 -3.36090569  2.50417474
H  -0.38912023 -3.62686288  3.61488482
H  -0.22902381 -4.76479819  2.38431032
H   2.66756546 -3.48734990 -0.50398420
H   4.01476034 -3.30120302 -2.68783606
H   5.17415629 -3.40840049 -1.44681877
H   4.62164907 -1.91246497 -2.14862039
H   2.77214013 -1.41916137  0.87301569
H   4.07855664 -0.96439301  0.14762630
H   4.33611007 -2.28619761  2.35416556
H   4.28454045 -3.69105415  1.07267225
H   5.54330435 -2.43648246  1.21580685
