89
pH=6.67 total_charge=0 partial_charge_sum=+0.000000 method=gasteiger energy=-438.98610100
N   2.71039682  2.33026733 -1.17481244
C   2.57737404  1.85426852 -2.57386914
C   2.29775615  0.36986180 -2.61434072
O   2.51446800 -0.16977470 -3.71223554
N   2.02382994 -0.35046352 -1.55791658
C   1.94015519 -1.76022236 -1.48957485
C   4.12460220  2.46568014 -0.72616546
C   1.57221762  2.52169248 -0.46340352
C   4.77310045  2.83662544 -2.04098116
C   1.73839803  3.05899825  1.02697411
O   0.46116282  2.26842666 -0.81555746
C   4.08973162  1.99121898 -3.15186739
N   0.54387304  3.51577548  1.46823487
C   2.05156890  1.75531192  1.84311301
C   0.21384664  4.82777658  1.33493145
S   2.22618635  1.78992799  3.64498402
C  -1.36614118  4.94371445  1.33226997
O   0.93209909  5.83405348  1.32520728
N  -1.95888553  4.13720639  0.20757305
C  -2.30321233  2.82482903  0.33298798
C  -3.04983202  2.30603654 -1.05591974
O  -2.43115490  2.19220452  1.41062981
N  -3.32520295  0.84138772 -0.89793314
C  -4.37769087  3.00186280 -1.44926263
C  -4.11081499 -0.02355454 -1.63157314
C  -4.08971632 -1.45803903 -1.11012470
O  -4.75548461  0.27266616 -2.63607711
N  -2.99361886 -1.89194262 -0.29088124
C  -5.41140750 -1.78382236 -0.45490920
C  -2.01337530 -2.67467919 -0.81385872
O  -6.43984754 -2.00270394 -1.42136744
C  -5.75022884 -0.93988903  0.72350780
C  -1.08075449 -3.39319378  0.18413017
O  -1.84647445 -2.82296104 -1.98793178
N   0.27785562 -3.25499043 -0.44266669
C  -1.26017010 -3.14959519  1.73781656
C   0.75738250 -1.99677781 -0.51489120
O  -1.62016363 -1.78538060  1.99676293
C  -0.18443376 -3.71823970  2.53853691
O   0.43836887 -1.08264795  0.33882789
C   3.14943119 -2.44736775 -0.83725999
C   4.21988500 -2.84032732 -1.86658849
C   3.57538821 -1.73102602  0.46428444
C   4.40938850 -2.69315360  1.28426001
H   1.83903736  2.45564990 -3.15744999
H   1.83974581  0.14172846 -0.71517814
H   1.70555699 -2.11780515 -2.49269831
H   4.27611711  3.35619230 -0.02660452
H   4.53312700  1.47571818 -0.39746145
H   4.67796749  3.89381923 -2.32418162
H   5.84181128  2.54790346 -1.88739607
H   2.44745592  3.84846457  1.06690560
H   4.02115558  2.54421563 -4.04837516
H   4.56032330  0.95381344 -3.30541572
H  -0.27723877  2.95509690  1.26645719
H   1.42023935  0.91029340  1.48402398
H   3.05261904  1.60708260  1.55803637
H   0.94579533  1.77130867  3.65477233
H  -1.67866021  5.92654370  1.18094749
H  -1.78675121  4.48945390  2.29306768
H  -1.60816150  4.44252917 -0.64722204
H  -2.21995641  2.46926837 -1.79782694
H  -3.05958415  0.43216241  0.00346787
H  -4.33383236  3.17816096 -2.49046351
H  -4.39136234  3.97214105 -0.98549323
H  -5.18708130  2.35233729 -1.11993303
H  -4.08862471 -2.13532281 -1.97090365
H  -2.85140026 -1.64830446  0.74015471
H  -5.23263576 -2.85022065 -0.19668831
H  -7.02274834 -1.18230940 -1.45819060
H  -4.87824320 -0.88815566  1.43447242
H  -5.74523383  0.06981888  0.34471208
H  -6.70060106 -1.03351640  1.26903823
H  -1.36451690 -4.48507356  0.11981625
H   0.32397466 -3.73926669 -1.36584792
H  -2.24390611 -3.59741533  1.93984272
H  -1.14367312 -1.23398369  1.41914329
H   0.54743553 -2.79583200  2.63144500
H  -0.45345289 -3.77757817  3.56924188
H   0.21919741 -4.59051493  2.16439576
H   2.80292363 -3.41131902 -0.42865816
H   3.80293659 -3.53543544 -2.64610755
H   5.05123180 -3.48508415 -1.35485379
H   4.72137584 -2.04075959 -2.43414409
H   2.71810301 -1.45680839  0.97151521
H   4.02347936 -0.78609469  0.24940788
H   4.33839473 -2.35790996  2.42703044
H   3.93128702 -3.66302317  1.03337873
H   5.48948969 -2.67249546  1.11461641
