89
pH=6.67 total_charge=0 partial_charge_sum=+0.000000 method=gasteiger energy=-440.48610100
N   2.72490238  2.42950035 -1.30547240 -0.32885971
C   2.80058071  1.71846736 -2.57581278  0.11064434
C   2.50591071  0.25064285 -2.40076716  0.24296608
O   1.76036605 -0.33238955 -3.23392070 -0.27269585
N   3.07435528 -0.48171575 -1.30317614 -0.34225538
C   2.63571290 -1.84468426 -0.96765914  0.11027229
C   3.90924910  3.23237541 -1.04573453  0.02147839
C   1.55682809  2.42476913 -0.46096522  0.24618075
C   4.75258184  3.14813209 -2.31144521 -0.03293701
C   1.63770810  2.85375655  0.98753108  0.11673320
O   0.46270116  1.99503659 -0.92010511 -0.27243595
C   4.22294947  1.94739006 -3.08995390 -0.02176808
N   0.29998539  3.16383147  1.50730471 -0.34198797
C   2.28855942  1.73668913  1.81877121  0.01971802
C  -0.44510300  4.30766823  1.06830667  0.23957128
S   2.60342060  2.28628159  3.52639177 -0.17665915
C  -1.84807139  4.51962348  1.54509016  0.09671512
O   0.05791794  5.11662233  0.24207733 -0.27304439
N  -2.78620484  3.85621210  0.64361980 -0.34526187
C  -3.12662457  2.46587152  0.75758284  0.24222585
C  -4.11759840  1.86231441 -0.20514654  0.10492820
O  -2.65058133  1.77235220  1.69767629 -0.27272574
N  -3.95217758  0.40662621 -0.29904024 -0.34271791
C  -5.54331585  2.18974930  0.23692174 -0.03562126
C  -4.17558460 -0.30931767 -1.52535305  0.24540916
C  -4.29240726 -1.81705845 -1.53970197  0.13355881
O  -4.30868467  0.32108171 -2.60957516 -0.27258876
N  -3.31776176 -2.43387533 -0.62954786 -0.34016997
C  -5.73619795 -2.30272157 -1.23539956  0.08044383
C  -1.90203097 -2.35292027 -0.85933557  0.24549434
O  -6.60923667 -1.95960013 -2.28334384 -0.39071690
C  -6.29515891 -1.81602912  0.11267249 -0.03637741
C  -0.94939726 -3.19289920 -0.03309352  0.13355918
O  -1.46151935 -1.62803147 -1.79359585 -0.27258719
N   0.44128971 -3.06194629 -0.50073599 -0.34024992
C  -1.08663502 -2.94700955  1.49652227  0.08044383
C   1.20060419 -1.84122515 -0.49568028  0.24307990
O  -0.92778067 -1.59147615  1.82488984 -0.39071690
C  -0.07440485 -3.77453079  2.29243637 -0.03637741
O   0.67857725 -0.76861777 -0.09096030 -0.27269107
C   3.56882037 -2.52447458  0.07726345 -0.01502634
C   4.97967198 -2.71494989 -0.50682778 -0.06003759
C   3.61674758 -1.76991189  1.43285981 -0.05109903
C   4.15417714 -2.63882246  2.57038919 -0.06503680
H   2.07029331  2.17123032 -3.28342560  0.06345154
H   3.79221802 -0.00177590 -0.71714162  0.16389215
H   2.67267542 -2.45627693 -1.89672812  0.06350406
H   3.62780550  4.28848006 -0.84326860  0.04940774
H   4.46673973  2.81406466 -0.18101456  0.04940774
H   4.61144895  4.07145067 -2.91559036  0.02855806
H   5.83185340  3.03164841 -2.07157821  0.02855806
H   2.26745991  3.76526109  1.06728446  0.06410760
H   4.22748891  2.14542933 -4.18394369  0.02937025
H   4.87637004  1.06996023 -2.88308200  0.02937025
H  -0.13796832  2.53002149  2.21389954  0.16390153
H   1.62468315  0.84749272  1.84908987  0.04044412
H   3.25666464  1.43198832  1.37057910  0.04044412
H   3.59637460  3.20313599  3.13099447  0.10230404
H  -2.06650670  5.60936404  1.56244745  0.05947612
H  -1.97195475  4.14220406  2.58291518  0.05947612
H  -3.21929842  4.42265711 -0.12049154  0.16359013
H  -3.94328291  2.32633139 -1.20039519  0.06291543
H  -3.88990174 -0.14424693  0.58679129  0.16386953
H  -6.26881186  1.78316337 -0.49930785  0.02566879
H  -5.68670157  3.28998078  0.29563404  0.02566879
H  -5.75386461  1.74294688  1.23250426  0.02566879
H  -4.05067138 -2.16745732 -2.56871925  0.06601890
H  -3.65598265 -3.07260545  0.12405884  0.16397971
H  -5.70772701 -3.41364110 -1.19250943  0.06249657
H  -6.71979268 -0.97320746 -2.27651594  0.21055973
H  -6.43855110 -0.71629536  0.11095432  0.02576598
H  -7.28182792 -2.29116601  0.29678662  0.02576598
H  -5.61827707 -2.09113423  0.94747924  0.02576598
H  -1.25585092 -4.24854568 -0.20791806  0.06601890
H   0.90356405 -3.92130415 -0.87534401  0.16397815
H  -2.09559385 -3.28950030  1.82472731  0.06249657
H  -1.79536150 -1.14434093  1.64536136  0.21055973
H   0.96295462 -3.44294444  2.07800781  0.02576598
H  -0.26219542 -3.65080534  3.38010956  0.02576598
H  -0.17185638 -4.85167203  2.03900743  0.02576598
H   3.15822289 -3.54276104  0.26259015  0.03262469
H   4.92371189 -3.22302388 -1.49305096  0.02340918
H   5.59547619 -3.35383252  0.15885022  0.02340918
H   5.49247190 -1.73884483 -0.63857850  0.02340918
H   2.59710015 -1.44481241  1.72501593  0.02673565
H   4.24950289 -0.86091946  1.35482935  0.02673565
H   4.07607106 -2.08152544  3.52777130  0.02304679
H   3.56197927 -3.57415267  2.65976100  0.02304679
H   5.22170782 -2.89080589  2.40519615  0.02304679
