      -----------------------------------------------------------      
     |                   =====================                   |     
     |                           x T B                           |     
     |                   =====================                   |     
     |                         S. Grimme                         |     
     |          Mulliken Center for Theoretical Chemistry        |     
     |                    University of Bonn                     |     
      -----------------------------------------------------------      

   * xtb version 6.7.1 (edcfbbe) compiled by 'albert@albert-system' on 2024-07-22

   xtb is free software: you can redistribute it and/or modify it under
   the terms of the GNU Lesser General Public License as published by
   the Free Software Foundation, either version 3 of the License, or
   (at your option) any later version.
   
   xtb is distributed in the hope that it will be useful,
   but WITHOUT ANY WARRANTY; without even the implied warranty of
   MERCHANTABILITY or FITNESS FOR A PARTICULAR PURPOSE.  See the
   GNU Lesser General Public License for more details.
   
   Cite this work as:
   * C. Bannwarth, E. Caldeweyher, S. Ehlert, A. Hansen, P. Pracht,
     J. Seibert, S. Spicher, S. Grimme, WIREs Comput. Mol. Sci., 2020, 11,
     e01493. DOI: 10.1002/wcms.1493
   
   for GFN2-xTB:
   * C. Bannwarth, S. Ehlert and S. Grimme., J. Chem. Theory Comput., 2019,
     15, 1652-1671. DOI: 10.1021/acs.jctc.8b01176
   for GFN1-xTB:
   * S. Grimme, C. Bannwarth, P. Shushkov, J. Chem. Theory Comput., 2017,
     13, 1989-2009. DOI: 10.1021/acs.jctc.7b00118
   for GFN0-xTB:
   * P. Pracht, E. Caldeweyher, S. Ehlert, S. Grimme, ChemRxiv, 2019, preprint.
     DOI: 10.26434/chemrxiv.8326202.v1
   for GFN-FF:
   * S. Spicher and S. Grimme, Angew. Chem. Int. Ed., 2020, 59, 15665-15673.
     DOI: 10.1002/anie.202004239
   
   for ALPB and GBSA implicit solvation:
   * S. Ehlert, M. Stahn, S. Spicher, S. Grimme, J. Chem. Theory Comput.,
     2021, 17, 4250-4261. DOI: 10.1021/acs.jctc.1c00471
   
   for ddCOSMO and CPCM-X implicit solvation:
   * M. Stahn, S. Ehlert, S. Grimme, J. Phys. Chem. A,
     2023, XX, XXXX-XXXX. DOI: 10.1021/acs.jpca.3c04382
   
   for DFT-D4:
   * E. Caldeweyher, C. Bannwarth and S. Grimme, J. Chem. Phys., 2017,
     147, 034112. DOI: 10.1063/1.4993215
   * E. Caldeweyher, S. Ehlert, A. Hansen, H. Neugebauer, S. Spicher,
     C. Bannwarth and S. Grimme, J. Chem. Phys., 2019, 150, 154122.
     DOI: 10.1063/1.5090222
   * E. Caldeweyher, J.-M. Mewes, S. Ehlert and S. Grimme, Phys. Chem. Chem. Phys.
     2020, 22, 8499-8512. DOI: 10.1039/D0CP00502A
   
   for sTDA-xTB:
   * S. Grimme and C. Bannwarth, J. Chem. Phys., 2016, 145, 054103.
     DOI: 10.1063/1.4959605
   
   in the mass-spec context:
   * V. Asgeirsson, C. Bauer and S. Grimme, Chem. Sci., 2017, 8, 4879.
     DOI: 10.1039/c7sc00601b
   * J. Koopman and S. Grimme, ACS Omega 2019, 4, 12, 15120-15133.
     DOI: 10.1021/acsomega.9b02011
   
   for metadynamics refer to:
   * S. Grimme, J. Chem. Theory Comput., 2019, 155, 2847-2862
     DOI: 10.1021/acs.jctc.9b00143
   
   for SPH calculations refer to:
   * S. Spicher and S. Grimme, J. Chem. Theory Comput., 2021, 17, 1701-1714
     DOI: 10.1021/acs.jctc.0c01306
   
   for ONIOM refer to:
   * C. Plett, A. Katbashev, S. Ehlert, S. Grimme, M. Bursch,
     Phys. Chem. Chem. Phys., 2023, 25, 17860-17868. DOI: 10.1039/D3CP02178E
   
   for DIPRO refer to:
   * J. Kohn, N. Gildemeister, S. Grimme, D. Fazzi, A. Hansen,
     J. Chem. Phys., 2023, just accepted.
   
   for PTB refer to:
   * S. Grimme, M. Mueller, A. Hansen, J. Chem. Phys., 2023, 158, 124111.
     DOI: 10.1063/5.0137838
   
   with help from (in alphabetical order)
   P. Atkinson, C. Bannwarth, F. Bohle, G. Brandenburg, E. Caldeweyher
   M. Checinski, S. Dohm, S. Ehlert, S. Ehrlich, I. Gerasimov, C. Hölzer
   A. Katbashev, J. Kohn, J. Koopman, C. Lavigne, S. Lehtola, F. März, M. Müller,
   F. Musil, H. Neugebauer, J. Pisarek, C. Plett, P. Pracht, F. Pultar,
   J. Seibert, P. Shushkov, S. Spicher, M. Stahn, M. Steiner, T. Strunk,
   J. Stückrath, T. Rose, and J. Unsleber
   
 * started run on 2026/05/23 at 08:19:46.099     
   ID    Z sym.   atoms
    1    7 N      1, 5, 10, 16, 18, 21, 27, 34, 42, 50
    2    6 C      2, 3, 6-8, 11-14, 17, 19, 20, 22-25, 28-31, 35-38, 40, 43,
                  44, 46-48
    3    8 O      4, 9, 15, 26, 32, 39, 41, 49
    4   16 S      33, 45
    5    1 H      51-96

           -------------------------------------------------
          |                Calculation Setup                |
           -------------------------------------------------

          program call               : /home/xchen/software/xtb-6.7.1/xtb-dist/bin/xtb /home/xchen/Test/benchmark/md_sampled/02_6_0901_0/snap_0162.xyz --charge 0 --gfn 2 --norestart
          coordinate file            : /home/xchen/Test/benchmark/md_sampled/02_6_0901_0/snap_0162.xyz
          omp threads                :                    48


           -------------------------------------------------
          |                 G F N 2 - x T B                 |
           -------------------------------------------------

        Reference                      10.1021/acs.jctc.8b01176
      * Hamiltonian:
        H0-scaling (s, p, d)           1.850000    2.230000    2.230000
        zeta-weighting                 0.500000
      * Dispersion:
        s8                             2.700000
        a1                             0.520000
        a2                             5.000000
        s9                             5.000000
      * Repulsion:
        kExp                           1.500000    1.000000
        rExp                           1.000000
      * Coulomb:
        alpha                          2.000000
        third order                    shell-resolved
        anisotropic                    true
        a3                             3.000000
        a5                             4.000000
        cn-shift                       1.200000
        cn-exp                         4.000000
        max-rad                        5.000000


          ...................................................
          :                      SETUP                      :
          :.................................................:
          :  # basis functions                 258          :
          :  # atomic orbitals                 256          :
          :  # shells                          148          :
          :  # electrons                       276          :
          :  max. iterations                   250          :
          :  Hamiltonian                  GFN2-xTB          :
          :  restarted?                      false          :
          :  GBSA solvation                  false          :
          :  PC potential                    false          :
          :  electronic temp.          300.0000000     K    :
          :  accuracy                    1.0000000          :
          :  -> integral cutoff          0.2500000E+02      :
          :  -> integral neglect         0.1000000E-07      :
          :  -> SCF convergence          0.1000000E-05 Eh   :
          :  -> wf. convergence          0.1000000E-03 e    :
          :  Broyden damping             0.4000000          :
          :  net charge                          0          :
          :  unpaired electrons                  0          :
          ...................................................

 iter      E             dE          RMSdq      gap      omega  full diag
   1   -157.0315334 -0.157032E+03  0.436E+00    3.79       0.0  T
   2   -157.5702146 -0.538681E+00  0.242E+00    3.23       1.0  T
   3   -157.6163432 -0.461286E-01  0.138E+00    3.18       1.0  T
   4   -157.6217757 -0.543257E-02  0.339E-01    2.71       1.0  T
   5   -157.6283369 -0.656112E-02  0.148E-01    2.84       1.0  T
   6   -157.6284146 -0.776969E-04  0.595E-02    2.85       1.0  T
   7   -157.6284939 -0.793188E-04  0.298E-02    2.86       1.0  T
   8   -157.6285202 -0.263117E-04  0.130E-02    2.86       1.0  T
   9   -157.6285259 -0.572916E-05  0.441E-03    2.86       2.3  T
  10   -157.6285264 -0.450707E-06  0.159E-03    2.86       6.4  T
  11   -157.6285264 -0.537124E-07  0.753E-04    2.86      13.6  T
  12   -157.6285264 -0.929623E-08  0.240E-04    2.86      42.5  T

   *** convergence criteria satisfied after 12 iterations ***

         #    Occupation            Energy/Eh            Energy/eV
      -------------------------------------------------------------
         1        2.0000           -0.7277787             -19.8039
       ...           ...                  ...                  ...
       132        2.0000           -0.4000178             -10.8850
       133        2.0000           -0.3968008             -10.7975
       134        2.0000           -0.3945236             -10.7355
       135        2.0000           -0.3917218             -10.6593
       136        2.0000           -0.3859374             -10.5019
       137        2.0000           -0.3684580             -10.0263
       138        2.0000           -0.3579893              -9.7414 (HOMO)
       139                         -0.2529354              -6.8827 (LUMO)
       140                         -0.2487964              -6.7701
       141                         -0.2463116              -6.7025
       142                         -0.2454998              -6.6804
       143                         -0.2404920              -6.5441
       ...                                ...                  ...
       256                          0.6372329              17.3400
      -------------------------------------------------------------
                  HL-Gap            0.1050539 Eh            2.8587 eV
             Fermi-level           -0.3054624 Eh           -8.3121 eV

 SCC (total)                   0 d,  0 h,  0 min, 10.513 sec
 SCC setup                      ...        0 min,  0.022 sec (  0.208%)
 Dispersion                     ...        0 min,  0.077 sec (  0.730%)
 classical contributions        ...        0 min,  0.046 sec (  0.434%)
 integral evaluation            ...        0 min,  0.347 sec (  3.301%)
 iterations                     ...        0 min,  9.763 sec ( 92.868%)
 molecular gradient             ...        0 min,  0.253 sec (  2.403%)
 printout                       ...        0 min,  0.006 sec (  0.054%)

         :::::::::::::::::::::::::::::::::::::::::::::::::::::
         ::                     SUMMARY                     ::
         :::::::::::::::::::::::::::::::::::::::::::::::::::::
         :: total energy            -155.889247278758 Eh    ::
         :: gradient norm              0.394121349373 Eh/a0 ::
         :: HOMO-LUMO gap              2.858661205589 eV    ::
         ::.................................................::
         :: SCC energy              -157.621300677909 Eh    ::
         :: -> isotropic ES            0.325927026118 Eh    ::
         :: -> anisotropic ES          0.011715585467 Eh    ::
         :: -> anisotropic XC          0.060118324711 Eh    ::
         :: -> dispersion             -0.124351939579 Eh    ::
         :: repulsion energy           1.732053399151 Eh    ::
         :: add. restraining           0.000000000000 Eh    ::
         :: total charge              -0.000000000000 e     ::
         :::::::::::::::::::::::::::::::::::::::::::::::::::::

           -------------------------------------------------
          |                Property Printout                |
           -------------------------------------------------

    * Orbital Energies and Occupations

         #    Occupation            Energy/Eh            Energy/eV
      -------------------------------------------------------------
         1        2.0000           -0.7277787             -19.8039
       ...           ...                  ...                  ...
       126        2.0000           -0.4245633             -11.5530
       127        2.0000           -0.4186239             -11.3913
       128        2.0000           -0.4168337             -11.3426
       129        2.0000           -0.4141292             -11.2690
       130        2.0000           -0.4102725             -11.1641
       131        2.0000           -0.4061157             -11.0510
       132        2.0000           -0.4000178             -10.8850
       133        2.0000           -0.3968008             -10.7975
       134        2.0000           -0.3945236             -10.7355
       135        2.0000           -0.3917218             -10.6593
       136        2.0000           -0.3859374             -10.5019
       137        2.0000           -0.3684580             -10.0263
       138        2.0000           -0.3579893              -9.7414 (HOMO)
       139                         -0.2529354              -6.8827 (LUMO)
       140                         -0.2487964              -6.7701
       141                         -0.2463116              -6.7025
       142                         -0.2454998              -6.6804
       143                         -0.2404920              -6.5441
       144                         -0.2340033              -6.3676
       145                         -0.2333421              -6.3496
       146                         -0.2230749              -6.0702
       147                         -0.2193268              -5.9682
       148                         -0.2160620              -5.8793
       149                         -0.2141339              -5.8269
       ...                                ...                  ...
       256                          0.6372329              17.3400
      -------------------------------------------------------------
                  HL-Gap            0.1050539 Eh            2.8587 eV
             Fermi-level           -0.3054624 Eh           -8.3121 eV

     #   Z          covCN         q      C6AA      α(0)
     1   7 N        2.684    -0.225    25.924     7.562
     2   6 C        3.802     0.035    19.991     6.366
     3   6 C        2.766     0.276    22.342     7.741
     4   8 O        0.858    -0.426    22.203     6.318
     5   7 N        2.698    -0.202    25.390     7.484
     6   6 C        3.818     0.025    20.136     6.386
     7   6 C        2.762     0.252    22.773     7.815
     8   6 C        3.788     0.024    20.185     6.399
     9   8 O        0.856    -0.406    21.799     6.260
    10   7 N        2.705    -0.185    25.005     7.427
    11   6 C        3.795    -0.075    21.936     6.669
    12   6 C        2.756     0.275    22.344     7.741
    13   6 C        3.203     0.061    26.086     8.321
    14   6 C        3.843     0.027    20.088     6.376
    15   8 O        0.856    -0.426    22.201     6.317
    16   7 N        1.890    -0.286    28.277     7.883
    17   6 C        3.008    -0.033    28.797     8.803
    18   7 N        2.749    -0.167    24.606     7.367
    19   6 C        3.816    -0.080    22.013     6.678
    20   6 C        3.142     0.079    25.997     8.343
    21   7 N        2.811    -0.061    22.420     7.032
    22   6 C        3.733    -0.009    20.823     6.513
    23   6 C        2.784     0.248    22.850     7.830
    24   6 C        3.813    -0.062    21.681     6.628
    25   6 C        3.809     0.029    20.078     6.378
    26   8 O        0.861    -0.415    21.974     6.285
    27   7 N        2.692    -0.170    24.684     7.379
    28   6 C        3.815    -0.061    21.662     6.624
    29   6 C        2.811     0.265    22.528     7.776
    30   6 C        3.788    -0.011    20.780     6.492
    31   6 C        3.787     0.020    20.248     6.409
    32   8 O        0.862    -0.439    22.471     6.356
    33  16 S        1.948    -0.161   147.850    20.465
    34   7 N        2.702    -0.179    24.874     7.407
    35   6 C        3.850    -0.050    21.433     6.585
    36   6 C        3.683    -0.051    21.711     6.672
    37   6 C        2.746     0.249    22.812     7.821
    38   6 C        3.787    -0.093    22.286     6.724
    39   8 O        0.856    -0.465    23.031     6.434
    40   6 C        2.733     0.278    22.290     7.730
    41   8 O        0.857    -0.397    21.615     6.233
    42   7 N        2.633    -0.284    27.336     7.765
    43   6 C        3.809    -0.066    21.764     6.641
    44   6 C        3.774    -0.017    20.913     6.516
    45  16 S        1.963    -0.219   150.401    20.641
    46   6 C        3.749    -0.061    21.729     6.648
    47   6 C        3.813    -0.098    22.364     6.731
    48   6 C        2.737     0.280    22.261     7.725
    49   8 O        0.858    -0.401    21.703     6.246
    50   7 N        2.641    -0.270    26.985     7.715
    51   1 H        0.848     0.223     0.997     1.565
    52   1 H        0.925     0.061     2.187     2.312
    53   1 H        0.861     0.175     1.243     1.746
    54   1 H        0.928     0.105     1.744     2.065
    55   1 H        0.919     0.078     2.000     2.212
    56   1 H        0.859     0.180     1.215     1.727
    57   1 H        0.924     0.062     2.177     2.308
    58   1 H        0.917     0.084     1.938     2.177
    59   1 H        0.927     0.076     2.021     2.223
    60   1 H        0.926     0.058     2.227     2.334
    61   1 H        0.929     0.055     2.257     2.349
    62   1 H        0.927     0.054     2.268     2.355
    63   1 H        0.916     0.031     2.571     2.508
    64   1 H        0.862     0.179     1.222     1.731
    65   1 H        0.926     0.058     2.220     2.330
    66   1 H        0.917     0.054     2.276     2.359
    67   1 H        0.922     0.051     2.303     2.373
    68   1 H        0.925     0.049     2.331     2.388
    69   1 H        0.927     0.112     1.676     2.025
    70   1 H        0.858     0.199     1.109     1.650
    71   1 H        0.924     0.067     2.122     2.278
    72   1 H        0.916     0.035     2.524     2.485
    73   1 H        0.925     0.054     2.266     2.354
    74   1 H        0.915     0.045     2.385     2.415
    75   1 H        0.921     0.081     1.968     2.194
    76   1 H        0.861     0.212     1.047     1.603
    77   1 H        0.919     0.048     2.352     2.399
    78   1 H        0.915     0.069     2.096     2.264
    79   1 H        0.924     0.047     2.354     2.399
    80   1 H        0.924     0.056     2.252     2.347
    81   1 H        0.871     0.032     2.565     2.508
    82   1 H        0.926     0.073     2.051     2.240
    83   1 H        0.915     0.048     2.348     2.397
    84   1 H        0.861     0.197     1.123     1.660
    85   1 H        0.862     0.195     1.133     1.667
    86   1 H        0.917     0.041     2.437     2.442
    87   1 H        0.922     0.044     2.399     2.422
    88   1 H        0.928     0.078     1.997     2.210
    89   1 H        0.917     0.050     2.315     2.380
    90   1 H        0.931     0.065     2.144     2.290
    91   1 H        0.920     0.061     2.189     2.314
    92   1 H        0.934     0.056     2.242     2.341
    93   1 H        0.925     0.046     2.365     2.405
    94   1 H        0.925     0.094     1.837     2.119
    95   1 H        0.862     0.210     1.055     1.609
    96   1 H        0.861     0.178     1.226     1.735

 Mol. C6AA /au·bohr⁶  :     100291.075890
 Mol. C8AA /au·bohr⁸  :    2413500.805734
 Mol. α(0) /au        :        478.868628


Wiberg/Mayer (AO) data.
largest (>0.10) Wiberg bond orders for each atom

 ---------------------------------------------------------------------------
     #   Z sym  total        # sym  WBO       # sym  WBO       # sym  WBO
 ---------------------------------------------------------------------------
     1   7 N    3.404 --     7 C    1.204     2 C    1.026    51 H    0.833
                             9 O    0.206
     2   6 C    3.977 --     1 N    1.026    52 H    0.949     3 C    0.948
                            43 C    0.940
     3   6 C    3.951 --     4 O    1.691     5 N    1.224     2 C    0.948
     4   8 O    2.008 --     3 C    1.691     5 N    0.187
     5   7 N    3.414 --     3 C    1.224     6 C    0.969    53 H    0.927
                             4 O    0.187
     6   6 C    3.963 --    47 C    1.006     5 N    0.969    54 H    0.935
                            37 C    0.920
     7   6 C    3.952 --     9 O    1.724     1 N    1.204     8 C    0.946
     8   6 C    3.962 --    11 C    0.997    55 H    0.953     7 C    0.946
                            10 N    0.942
     9   8 O    2.046 --     7 C    1.724     1 N    0.206
    10   7 N    3.398 --    12 C    1.258     8 C    0.942    56 H    0.916
                            15 O    0.183
    11   6 C    3.991 --     8 C    0.997    13 C    0.995    58 H    0.963
                            57 H    0.957
    12   6 C    3.955 --    15 O    1.683    10 N    1.258    14 C    0.951
    13   6 C    3.971 --    17 C    1.527    16 N    1.319    11 C    0.995
    14   6 C    3.969 --    18 N    0.980    59 H    0.956    19 C    0.953
                            12 C    0.951
    15   8 O    1.993 --    12 C    1.683    10 N    0.183
    16   7 N    3.077 --    20 C    1.448    13 C    1.319
    17   6 C    3.921 --    13 C    1.527    21 N    1.193    60 H    0.970
                            20 C    0.144
    18   7 N    3.362 --    23 C    1.155    14 C    0.980    22 C    0.952
                            26 O    0.165
    19   6 C    3.993 --    24 C    1.005    61 H    0.982    62 H    0.978
                            14 C    0.953
    20   6 C    3.956 --    16 N    1.448    21 N    1.334    63 H    0.959
                            17 C    0.144
    21   7 N    3.624 --    20 C    1.334    17 C    1.193    64 H    0.940
    22   6 C    3.960 --    24 C    0.998    66 H    0.964    65 H    0.959
                            18 N    0.952
    23   6 C    3.943 --    26 O    1.721    18 N    1.155    25 C    0.960
    24   6 C    3.991 --    19 C    1.005    22 C    0.998    67 H    0.979
                            68 H    0.977
    25   6 C    3.966 --    27 N    1.011    23 C    0.960    28 C    0.948
                            69 H    0.933
    26   8 O    2.019 --    23 C    1.721    18 N    0.165
    27   7 N    3.455 --    29 C    1.267    25 C    1.011    70 H    0.894
                            32 O    0.187
    28   6 C    3.989 --    30 C    1.025    71 H    0.969    25 C    0.948
                            72 H    0.947
    29   6 C    3.955 --    32 O    1.664    27 N    1.267    31 C    0.929
    30   6 C    3.980 --    28 C    1.025    33 S    0.986    73 H    0.971
                            74 H    0.962
    31   6 C    3.957 --    35 C    0.976    34 N    0.967    75 H    0.956
                            29 C    0.929
    32   8 O    1.987 --    29 C    1.664    27 N    0.187
    33  16 S    2.096 --    36 C    1.010    30 C    0.986
    34   7 N    3.484 --    37 C    1.317    31 C    0.967    76 H    0.917
                            39 O    0.205
    35   6 C    3.990 --    38 C    1.016    31 C    0.976    78 H    0.957
                            77 H    0.953
    36   6 C    3.965 --    33 S    1.010    80 H    0.982    79 H    0.978
                            81 H    0.976
    37   6 C    3.952 --    39 O    1.621    34 N    1.317     6 C    0.920
    38   6 C    3.986 --    35 C    1.016    83 H    0.965    82 H    0.956
                            40 C    0.926
    39   8 O    1.972 --    37 C    1.621    34 N    0.205
    40   6 C    3.938 --    41 O    1.762    42 N    1.217    38 C    0.926
    41   8 O    2.058 --    40 C    1.762    42 N    0.185
    42   7 N    3.320 --    40 C    1.217    85 H    0.945    84 H    0.942
                            41 O    0.185
    43   6 C    3.987 --    44 C    1.009    87 H    0.977    86 H    0.972
                             2 C    0.940
    44   6 C    3.969 --    43 C    1.009    45 S    0.978    89 H    0.974
                            88 H    0.967
    45  16 S    2.075 --    46 C    1.013    44 C    0.978
    46   6 C    3.983 --    45 S    1.013    90 H    0.986    92 H    0.984
                            91 H    0.976
    47   6 C    3.982 --     6 C    1.006    93 H    0.961    48 C    0.943
                            94 H    0.942
    48   6 C    3.946 --    49 O    1.722    50 N    1.253    47 C    0.943
    49   8 O    2.042 --    48 C    1.722    50 N    0.199
    50   7 N    3.370 --    48 C    1.253    96 H    0.948    95 H    0.935
                            49 O    0.199
    51   1 H    0.950 --     1 N    0.833
    52   1 H    0.995 --     2 C    0.949
    53   1 H    0.969 --     5 N    0.927
    54   1 H    0.989 --     6 C    0.935
    55   1 H    0.993 --     8 C    0.953
    56   1 H    0.968 --    10 N    0.916
    57   1 H    0.996 --    11 C    0.957
    58   1 H    0.993 --    11 C    0.963
    59   1 H    0.994 --    14 C    0.956
    60   1 H    0.997 --    17 C    0.970
    61   1 H    0.997 --    19 C    0.982
    62   1 H    0.997 --    19 C    0.978
    63   1 H    0.999 --    20 C    0.959
    64   1 H    0.967 --    21 N    0.940
    65   1 H    0.996 --    22 C    0.959
    66   1 H    0.997 --    22 C    0.964
    67   1 H    0.997 --    24 C    0.979
    68   1 H    0.997 --    24 C    0.977
    69   1 H    0.987 --    25 C    0.933
    70   1 H    0.960 --    27 N    0.894
    71   1 H    0.995 --    28 C    0.969
    72   1 H    0.999 --    28 C    0.947
    73   1 H    0.997 --    30 C    0.971
    74   1 H    0.997 --    30 C    0.962
    75   1 H    0.993 --    31 C    0.956
    76   1 H    0.955 --    34 N    0.917
    77   1 H    0.998 --    35 C    0.953
    78   1 H    0.995 --    35 C    0.957
    79   1 H    0.998 --    36 C    0.978
    80   1 H    0.997 --    36 C    0.982
    81   1 H    0.999 --    36 C    0.976
    82   1 H    0.995 --    38 C    0.956
    83   1 H    0.998 --    38 C    0.965
    84   1 H    0.961 --    42 N    0.942
    85   1 H    0.962 --    42 N    0.945
    86   1 H    0.998 --    43 C    0.972
    87   1 H    0.998 --    43 C    0.977
    88   1 H    0.994 --    44 C    0.967
    89   1 H    0.997 --    44 C    0.974
    90   1 H    0.996 --    46 C    0.986
    91   1 H    0.996 --    46 C    0.976
    92   1 H    0.997 --    46 C    0.984
    93   1 H    0.998 --    47 C    0.961
    94   1 H    0.990 --    47 C    0.942
    95   1 H    0.955 --    50 N    0.935
    96   1 H    0.968 --    50 N    0.948
 ---------------------------------------------------------------------------

Topologies differ in total number of bonds
Writing topology from bond orders to xtbtopo.mol

molecular dipole:
                 x           y           z       tot (Debye)
 q only:        2.058      -3.673      -3.141
   full:        2.546      -5.100      -3.249      16.678
molecular quadrupole (traceless):
                xx          xy          yy          xz          yz          zz
 q only:       70.492     -36.807     -49.332      30.507      24.939     -21.161
  q+dip:       79.265     -36.557     -49.526      46.476      31.981     -29.740
   full:       80.251     -37.861     -52.532      46.282      32.077     -27.719


           -------------------------------------------------
          | TOTAL ENERGY             -155.889247278758 Eh   |
          | GRADIENT NORM               0.394121349373 Eh/α |
          | HOMO-LUMO GAP               2.858661205589 eV   |
           -------------------------------------------------

------------------------------------------------------------------------
 * finished run on 2026/05/23 at 08:19:57.082     
------------------------------------------------------------------------
 total:
 * wall-time:     0 d,  0 h,  0 min, 10.982 sec
 *  cpu-time:     0 d,  0 h,  0 min, 27.150 sec
 * ratio c/w:     2.472 speedup
 SCF:
 * wall-time:     0 d,  0 h,  0 min, 10.514 sec
 *  cpu-time:     0 d,  0 h,  0 min, 25.914 sec
 * ratio c/w:     2.465 speedup

normal termination of xtb
