      -----------------------------------------------------------      
     |                   =====================                   |     
     |                           x T B                           |     
     |                   =====================                   |     
     |                         S. Grimme                         |     
     |          Mulliken Center for Theoretical Chemistry        |     
     |                    University of Bonn                     |     
      -----------------------------------------------------------      

   * xtb version 6.7.1 (edcfbbe) compiled by 'albert@albert-system' on 2024-07-22

   xtb is free software: you can redistribute it and/or modify it under
   the terms of the GNU Lesser General Public License as published by
   the Free Software Foundation, either version 3 of the License, or
   (at your option) any later version.
   
   xtb is distributed in the hope that it will be useful,
   but WITHOUT ANY WARRANTY; without even the implied warranty of
   MERCHANTABILITY or FITNESS FOR A PARTICULAR PURPOSE.  See the
   GNU Lesser General Public License for more details.
   
   Cite this work as:
   * C. Bannwarth, E. Caldeweyher, S. Ehlert, A. Hansen, P. Pracht,
     J. Seibert, S. Spicher, S. Grimme, WIREs Comput. Mol. Sci., 2020, 11,
     e01493. DOI: 10.1002/wcms.1493
   
   for GFN2-xTB:
   * C. Bannwarth, S. Ehlert and S. Grimme., J. Chem. Theory Comput., 2019,
     15, 1652-1671. DOI: 10.1021/acs.jctc.8b01176
   for GFN1-xTB:
   * S. Grimme, C. Bannwarth, P. Shushkov, J. Chem. Theory Comput., 2017,
     13, 1989-2009. DOI: 10.1021/acs.jctc.7b00118
   for GFN0-xTB:
   * P. Pracht, E. Caldeweyher, S. Ehlert, S. Grimme, ChemRxiv, 2019, preprint.
     DOI: 10.26434/chemrxiv.8326202.v1
   for GFN-FF:
   * S. Spicher and S. Grimme, Angew. Chem. Int. Ed., 2020, 59, 15665-15673.
     DOI: 10.1002/anie.202004239
   
   for ALPB and GBSA implicit solvation:
   * S. Ehlert, M. Stahn, S. Spicher, S. Grimme, J. Chem. Theory Comput.,
     2021, 17, 4250-4261. DOI: 10.1021/acs.jctc.1c00471
   
   for ddCOSMO and CPCM-X implicit solvation:
   * M. Stahn, S. Ehlert, S. Grimme, J. Phys. Chem. A,
     2023, XX, XXXX-XXXX. DOI: 10.1021/acs.jpca.3c04382
   
   for DFT-D4:
   * E. Caldeweyher, C. Bannwarth and S. Grimme, J. Chem. Phys., 2017,
     147, 034112. DOI: 10.1063/1.4993215
   * E. Caldeweyher, S. Ehlert, A. Hansen, H. Neugebauer, S. Spicher,
     C. Bannwarth and S. Grimme, J. Chem. Phys., 2019, 150, 154122.
     DOI: 10.1063/1.5090222
   * E. Caldeweyher, J.-M. Mewes, S. Ehlert and S. Grimme, Phys. Chem. Chem. Phys.
     2020, 22, 8499-8512. DOI: 10.1039/D0CP00502A
   
   for sTDA-xTB:
   * S. Grimme and C. Bannwarth, J. Chem. Phys., 2016, 145, 054103.
     DOI: 10.1063/1.4959605
   
   in the mass-spec context:
   * V. Asgeirsson, C. Bauer and S. Grimme, Chem. Sci., 2017, 8, 4879.
     DOI: 10.1039/c7sc00601b
   * J. Koopman and S. Grimme, ACS Omega 2019, 4, 12, 15120-15133.
     DOI: 10.1021/acsomega.9b02011
   
   for metadynamics refer to:
   * S. Grimme, J. Chem. Theory Comput., 2019, 155, 2847-2862
     DOI: 10.1021/acs.jctc.9b00143
   
   for SPH calculations refer to:
   * S. Spicher and S. Grimme, J. Chem. Theory Comput., 2021, 17, 1701-1714
     DOI: 10.1021/acs.jctc.0c01306
   
   for ONIOM refer to:
   * C. Plett, A. Katbashev, S. Ehlert, S. Grimme, M. Bursch,
     Phys. Chem. Chem. Phys., 2023, 25, 17860-17868. DOI: 10.1039/D3CP02178E
   
   for DIPRO refer to:
   * J. Kohn, N. Gildemeister, S. Grimme, D. Fazzi, A. Hansen,
     J. Chem. Phys., 2023, just accepted.
   
   for PTB refer to:
   * S. Grimme, M. Mueller, A. Hansen, J. Chem. Phys., 2023, 158, 124111.
     DOI: 10.1063/5.0137838
   
   with help from (in alphabetical order)
   P. Atkinson, C. Bannwarth, F. Bohle, G. Brandenburg, E. Caldeweyher
   M. Checinski, S. Dohm, S. Ehlert, S. Ehrlich, I. Gerasimov, C. Hölzer
   A. Katbashev, J. Kohn, J. Koopman, C. Lavigne, S. Lehtola, F. März, M. Müller,
   F. Musil, H. Neugebauer, J. Pisarek, C. Plett, P. Pracht, F. Pultar,
   J. Seibert, P. Shushkov, S. Spicher, M. Stahn, M. Steiner, T. Strunk,
   J. Stückrath, T. Rose, and J. Unsleber
   
 * started run on 2026/05/23 at 08:16:07.121     
   ID    Z sym.   atoms
    1    7 N      1, 5, 10, 17, 23, 28, 35
    2    6 C      2, 3, 6-8, 11-14, 16, 20, 21, 24-26, 29, 31-34, 36-40
    3    8 O      4, 9, 15, 18, 19, 22, 27, 30
    4    1 H      41-70

           -------------------------------------------------
          |                Calculation Setup                |
           -------------------------------------------------

          program call               : /home/xchen/software/xtb-6.7.1/xtb-dist/bin/xtb /home/xchen/Test/benchmark/md_sampled/01_6_0109_n1/snap_0106.xyz --charge -1 --gfn 2 --norestart
          coordinate file            : /home/xchen/Test/benchmark/md_sampled/01_6_0109_n1/snap_0106.xyz
          omp threads                :                    48


           -------------------------------------------------
          |                 G F N 2 - x T B                 |
           -------------------------------------------------

        Reference                      10.1021/acs.jctc.8b01176
      * Hamiltonian:
        H0-scaling (s, p, d)           1.850000    2.230000    2.230000
        zeta-weighting                 0.500000
      * Dispersion:
        s8                             2.700000
        a1                             0.520000
        a2                             5.000000
        s9                             5.000000
      * Repulsion:
        kExp                           1.500000    1.000000
        rExp                           1.000000
      * Coulomb:
        alpha                          2.000000
        third order                    shell-resolved
        anisotropic                    true
        a3                             3.000000
        a5                             4.000000
        cn-shift                       1.200000
        cn-exp                         4.000000
        max-rad                        5.000000


          ...................................................
          :                      SETUP                      :
          :.................................................:
          :  # basis functions                 190          :
          :  # atomic orbitals                 190          :
          :  # shells                          110          :
          :  # electrons                       214          :
          :  max. iterations                   250          :
          :  Hamiltonian                  GFN2-xTB          :
          :  restarted?                      false          :
          :  GBSA solvation                  false          :
          :  PC potential                    false          :
          :  electronic temp.          300.0000000     K    :
          :  accuracy                    1.0000000          :
          :  -> integral cutoff          0.2500000E+02      :
          :  -> integral neglect         0.1000000E-07      :
          :  -> SCF convergence          0.1000000E-05 Eh   :
          :  -> wf. convergence          0.1000000E-03 e    :
          :  Broyden damping             0.4000000          :
          :  net charge                         -1          :
          :  unpaired electrons                  0          :
          ...................................................

 iter      E             dE          RMSdq      gap      omega  full diag
   1   -123.0988833 -0.123099E+03  0.450E+00    2.89       0.0  T
   2   -123.4693712 -0.370488E+00  0.244E+00    2.41       1.0  T
   3   -123.4896217 -0.202505E-01  0.137E+00    1.30       1.0  T
   4   -123.4847526  0.486911E-02  0.530E-01    0.32       1.0  T
   5   -123.5046406 -0.198880E-01  0.155E-01    0.43       1.0  T
   6   -123.5051349 -0.494297E-03  0.862E-02    0.60       1.0  T
   7   -123.5054041 -0.269189E-03  0.317E-02    0.64       1.0  T
   8   -123.5054104 -0.626269E-05  0.162E-02    0.63       1.0  T
   9   -123.5054186 -0.827247E-05  0.501E-03    0.63       2.4  T
  10   -123.5054189 -0.236599E-06  0.220E-03    0.63       5.4  T
  11   -123.5054189 -0.830823E-07  0.106E-03    0.63      11.3  T
  12   -123.5054190 -0.297884E-07  0.400E-04    0.63      29.9  T
  13   -123.5054190 -0.292809E-08  0.158E-04    0.63      75.7  T

   *** convergence criteria satisfied after 13 iterations ***

         #    Occupation            Energy/Eh            Energy/eV
      -------------------------------------------------------------
         1        2.0000           -0.6599507             -17.9582
       ...           ...                  ...                  ...
       101        2.0000           -0.3222265              -8.7682
       102        2.0000           -0.3201683              -8.7122
       103        2.0000           -0.3126123              -8.5066
       104        2.0000           -0.3037950              -8.2667
       105        2.0000           -0.2298677              -6.2550
       106        2.0000           -0.2147587              -5.8439
       107        2.0000           -0.2072398              -5.6393 (HOMO)
       108        0.0000           -0.1841134              -5.0100 (LUMO)
       109        0.0000           -0.1813848              -4.9357
       110                         -0.1706092              -4.6425
       111                         -0.1668216              -4.5394
       112                         -0.1512029              -4.1144
       ...                                ...                  ...
       190                          0.8167973              22.2262
      -------------------------------------------------------------
                  HL-Gap            0.0231263 Eh            0.6293 eV
             Fermi-level           -0.1957026 Eh           -5.3253 eV

 SCC (total)                   0 d,  0 h,  0 min, 10.979 sec
 SCC setup                      ...        0 min,  0.038 sec (  0.346%)
 Dispersion                     ...        0 min,  0.060 sec (  0.543%)
 classical contributions        ...        0 min,  0.007 sec (  0.060%)
 integral evaluation            ...        0 min,  0.364 sec (  3.312%)
 iterations                     ...        0 min,  9.948 sec ( 90.611%)
 molecular gradient             ...        0 min,  0.553 sec (  5.033%)
 printout                       ...        0 min,  0.010 sec (  0.094%)

         :::::::::::::::::::::::::::::::::::::::::::::::::::::
         ::                     SUMMARY                     ::
         :::::::::::::::::::::::::::::::::::::::::::::::::::::
         :: total energy            -122.032762462135 Eh    ::
         :: gradient norm              0.347809781277 Eh/a0 ::
         :: HOMO-LUMO gap              0.629299877131 eV    ::
         ::.................................................::
         :: SCC energy              -123.504277837926 Eh    ::
         :: -> isotropic ES            0.406572440769 Eh    ::
         :: -> anisotropic ES          0.012394988197 Eh    ::
         :: -> anisotropic XC          0.030079169380 Eh    ::
         :: -> dispersion             -0.081202370945 Eh    ::
         :: repulsion energy           1.471515375790 Eh    ::
         :: add. restraining           0.000000000000 Eh    ::
         :: total charge              -1.000000000143 e     ::
         :::::::::::::::::::::::::::::::::::::::::::::::::::::

           -------------------------------------------------
          |                Property Printout                |
           -------------------------------------------------

    * Orbital Energies and Occupations

         #    Occupation            Energy/Eh            Energy/eV
      -------------------------------------------------------------
         1        2.0000           -0.6599507             -17.9582
       ...           ...                  ...                  ...
        95        2.0000           -0.3368816              -9.1670
        96        2.0000           -0.3346751              -9.1070
        97        2.0000           -0.3330151              -9.0618
        98        2.0000           -0.3259914              -8.8707
        99        2.0000           -0.3237237              -8.8090
       100        2.0000           -0.3226971              -8.7810
       101        2.0000           -0.3222265              -8.7682
       102        2.0000           -0.3201683              -8.7122
       103        2.0000           -0.3126123              -8.5066
       104        2.0000           -0.3037950              -8.2667
       105        2.0000           -0.2298677              -6.2550
       106        2.0000           -0.2147587              -5.8439
       107        2.0000           -0.2072398              -5.6393 (HOMO)
       108        0.0000           -0.1841134              -5.0100 (LUMO)
       109        0.0000           -0.1813848              -4.9357
       110                         -0.1706092              -4.6425
       111                         -0.1668216              -4.5394
       112                         -0.1512029              -4.1144
       113                         -0.1499787              -4.0811
       114                         -0.1431456              -3.8952
       115                         -0.1380889              -3.7576
       116                         -0.1127883              -3.0691
       117                         -0.0415368              -1.1303
       118                         -0.0144589              -0.3934
       ...                                ...                  ...
       190                          0.8167973              22.2262
      -------------------------------------------------------------
                  HL-Gap            0.0231263 Eh            0.6293 eV
             Fermi-level           -0.1957026 Eh           -5.3253 eV

     #   Z          covCN         q      C6AA      α(0)
     1   7 N        2.681    -0.229    26.018     7.576
     2   6 C        3.746    -0.030    21.173     6.564
     3   6 C        2.754     0.277    22.313     7.735
     4   8 O        0.861    -0.457    22.842     6.408
     5   7 N        2.688    -0.172    24.720     7.384
     6   6 C        3.794     0.025    20.153     6.393
     7   6 C        2.763     0.276    22.331     7.739
     8   6 C        3.791     0.026    20.141     6.391
     9   8 O        0.859    -0.479    23.323     6.475
    10   7 N        2.693    -0.187    25.049     7.433
    11   6 C        3.771    -0.055    21.595     6.622
    12   6 C        2.749     0.266    22.503     7.768
    13   6 C        3.773    -0.110    22.628     6.778
    14   6 C        3.749    -0.024    21.072     6.547
    15   8 O        0.858    -0.444    22.585     6.372
    16   6 C        2.669     0.365    20.815     7.465
    17   7 N        2.684    -0.196    25.267     7.465
    18   8 O        0.856    -0.560    25.166     6.726
    19   8 O        0.856    -0.578    25.582     6.781
    20   6 C        2.754     0.265    22.535     7.774
    21   6 C        3.769     0.027    20.159     6.399
    22   8 O        0.858    -0.404    21.759     6.254
    23   7 N        2.687    -0.187    25.063     7.435
    24   6 C        3.760    -0.113    22.714     6.794
    25   6 C        2.751     0.269    22.450     7.759
    26   6 C        3.756    -0.027    21.105     6.550
    27   8 O        0.857    -0.423    22.137     6.308
    28   7 N        2.694    -0.186    25.036     7.431
    29   6 C        2.807     0.293    22.031     7.690
    30   8 O        0.859    -0.432    22.323     6.335
    31   6 C        3.821    -0.058    21.600     6.614
    32   6 C        2.994    -0.021    28.529     8.762
    33   6 C        3.184     0.001    27.548     8.566
    34   6 C        3.142    -0.019    28.229     8.694
    35   7 N        2.720    -0.114    23.478     7.196
    36   6 C        3.144     0.045    26.735     8.460
    37   6 C        2.903    -0.046    29.146     8.852
    38   6 C        2.899    -0.060    29.486     8.903
    39   6 C        2.910    -0.041    29.020     8.833
    40   6 C        2.906    -0.043    29.070     8.841
    41   1 H        0.862     0.202     1.094     1.638
    42   1 H        0.928     0.102     1.769     2.080
    43   1 H        0.928     0.088     1.899     2.155
    44   1 H        0.856     0.190     1.157     1.685
    45   1 H        0.919     0.066     2.129     2.282
    46   1 H        0.925     0.065     2.138     2.286
    47   1 H        0.862     0.206     1.075     1.624
    48   1 H        0.925     0.037     2.487     2.466
    49   1 H        0.901     0.055     2.263     2.353
    50   1 H        0.921    -0.013     3.291     2.837
    51   1 H        0.930     0.033     2.550     2.497
    52   1 H        0.928     0.086     1.915     2.164
    53   1 H        0.927     0.068     2.103     2.267
    54   1 H        0.860     0.179     1.217     1.728
    55   1 H        0.903     0.051     2.317     2.381
    56   1 H        0.860     0.185     1.185     1.705
    57   1 H        0.925     0.052     2.294     2.369
    58   1 H        0.923     0.057     2.238     2.340
    59   1 H        0.923     0.057     2.233     2.337
    60   1 H        0.911     0.059     2.218     2.330
    61   1 H        0.929     0.109     1.709     2.044
    62   1 H        0.860     0.203     1.091     1.636
    63   1 H        0.925     0.060     2.198     2.318
    64   1 H        0.914     0.061     2.184     2.311
    65   1 H        0.925     0.034     2.526     2.485
    66   1 H        0.860     0.161     1.325     1.803
    67   1 H        0.928     0.036     2.507     2.476
    68   1 H        0.923     0.016     2.788     2.611
    69   1 H        0.924     0.018     2.764     2.600
    70   1 H        0.929     0.033     2.539     2.492

 Mol. C6AA /au·bohr⁶  :      56148.963459
 Mol. C8AA /au·bohr⁸  :    1291264.107214
 Mol. α(0) /au        :        359.375990


Wiberg/Mayer (AO) data.
largest (>0.10) Wiberg bond orders for each atom

 ---------------------------------------------------------------------------
     #   Z sym  total        # sym  WBO       # sym  WBO       # sym  WBO
 ---------------------------------------------------------------------------
     1   7 N    3.368 --     7 C    1.230     2 C    0.955    41 H    0.915
                             9 O    0.162
     2   6 C    3.954 --    42 H    0.962    43 H    0.957     3 C    0.955
                             1 N    0.955
     3   6 C    3.959 --     4 O    1.650     5 N    1.293     2 C    0.955
     4   8 O    1.971 --     3 C    1.650     5 N    0.194
     5   7 N    3.462 --     3 C    1.293     6 C    0.976    44 H    0.912
                             4 O    0.194
     6   6 C    3.962 --     5 N    0.976    31 C    0.960    45 H    0.952
                            29 C    0.941
     7   6 C    3.952 --     9 O    1.628     1 N    1.230     8 C    1.007
     8   6 C    3.964 --     7 C    1.007    10 N    0.959    46 H    0.948
                            11 C    0.926
     9   8 O    1.948 --     7 C    1.628     1 N    0.162
    10   7 N    3.447 --    12 C    1.290     8 C    0.959    47 H    0.910
                            15 O    0.205
    11   6 C    3.968 --    13 C    0.996    48 H    0.980    49 H    0.967
                             8 C    0.926
    12   6 C    3.956 --    15 O    1.662    10 N    1.290    14 C    0.947
    13   6 C    3.942 --    11 C    0.996    51 H    0.983    50 H    0.963
                            16 C    0.824
    14   6 C    3.961 --    17 N    0.970    53 H    0.969    52 H    0.962
                            12 C    0.947
    15   8 O    1.976 --    12 C    1.662    10 N    0.205
    16   6 C    3.945 --    18 O    1.561    19 O    1.543    13 C    0.824
    17   7 N    3.396 --    20 C    1.220    14 C    0.970    54 H    0.937
                            22 O    0.200
    18   8 O    1.891 --    16 C    1.561    19 O    0.238
    19   8 O    1.863 --    16 C    1.543    18 O    0.238
    20   6 C    3.948 --    22 O    1.733    17 N    1.220    21 C    0.918
    21   6 C    3.969 --    24 C    1.000    23 N    0.986    55 H    0.951
                            20 C    0.918
    22   8 O    2.049 --    20 C    1.733    17 N    0.200
    23   7 N    3.412 --    25 C    1.218    21 C    0.986    56 H    0.934
                            27 O    0.186
    24   6 C    3.986 --    21 C    1.000    58 H    0.981    57 H    0.981
                            59 H    0.979
    25   6 C    3.948 --    27 O    1.710    23 N    1.218    26 C    0.947
    26   6 C    3.974 --    28 N    1.008    60 H    0.960    25 C    0.947
                            61 H    0.944
    27   8 O    2.023 --    25 C    1.710    23 N    0.186
    28   7 N    3.402 --    29 C    1.230    26 C    1.008    62 H    0.916
                            30 O    0.182
    29   6 C    3.952 --    30 O    1.696    28 N    1.230     6 C    0.941
    30   8 O    2.012 --    29 C    1.696    28 N    0.182
    31   6 C    3.983 --    32 C    0.990    64 H    0.966    63 H    0.966
                             6 C    0.960
    32   6 C    3.970 --    33 C    1.609    34 C    1.193    31 C    0.990
    33   6 C    3.944 --    32 C    1.609    35 N    1.179    65 H    0.965
    34   6 C    3.970 --    37 C    1.311    36 C    1.255    32 C    1.193
    35   7 N    3.527 --    33 C    1.179    36 C    1.176    66 H    0.945
    36   6 C    3.952 --    38 C    1.326    34 C    1.255    35 N    1.176
    37   6 C    3.984 --    39 C    1.496    34 C    1.311    67 H    0.972
                            38 C    0.121
    38   6 C    3.983 --    40 C    1.482    36 C    1.326    68 H    0.969
                            37 C    0.121
    39   6 C    3.989 --    37 C    1.496    40 C    1.383    69 H    0.971
    40   6 C    3.991 --    38 C    1.482    39 C    1.383    70 H    0.975
    41   1 H    0.959 --     1 N    0.915
    42   1 H    0.990 --     2 C    0.962
    43   1 H    0.992 --     2 C    0.957
    44   1 H    0.963 --     5 N    0.912
    45   1 H    0.995 --     6 C    0.952
    46   1 H    0.995 --     8 C    0.948
    47   1 H    0.957 --    10 N    0.910
    48   1 H    0.999 --    11 C    0.980
    49   1 H    0.996 --    11 C    0.967
    50   1 H    1.000 --    13 C    0.963
    51   1 H    0.999 --    13 C    0.983
    52   1 H    0.992 --    14 C    0.962
    53   1 H    0.995 --    14 C    0.969
    54   1 H    0.968 --    17 N    0.937
    55   1 H    0.997 --    21 C    0.951
    56   1 H    0.966 --    23 N    0.934
    57   1 H    0.997 --    24 C    0.981
    58   1 H    0.996 --    24 C    0.981
    59   1 H    0.997 --    24 C    0.979
    60   1 H    0.996 --    26 C    0.960
    61   1 H    0.988 --    26 C    0.944
    62   1 H    0.959 --    28 N    0.916
    63   1 H    0.996 --    31 C    0.966
    64   1 H    0.996 --    31 C    0.966
    65   1 H    0.998 --    33 C    0.965
    66   1 H    0.973 --    35 N    0.945
    67   1 H    0.998 --    37 C    0.972
    68   1 H    0.999 --    38 C    0.969
    69   1 H    0.999 --    39 C    0.971
    70   1 H    0.998 --    40 C    0.975
 ---------------------------------------------------------------------------

Topologies differ in total number of bonds
Writing topology from bond orders to xtbtopo.mol

molecular dipole:
                 x           y           z       tot (Debye)
 q only:        2.766       9.428       7.339
   full:        2.695       9.385       7.282      30.960
molecular quadrupole (traceless):
                xx          xy          yy          xz          yz          zz
 q only:       63.056     -52.756     -49.732     -33.739    -124.327     -13.325
  q+dip:       57.728     -53.274     -45.700     -29.156    -128.580     -12.028
   full:       59.685     -53.945     -47.630     -31.369    -127.711     -12.054


           -------------------------------------------------
          | TOTAL ENERGY             -122.032762462135 Eh   |
          | GRADIENT NORM               0.347809781277 Eh/α |
          | HOMO-LUMO GAP               0.629299877131 eV   |
           -------------------------------------------------

------------------------------------------------------------------------
 * finished run on 2026/05/23 at 08:16:18.697     
------------------------------------------------------------------------
 total:
 * wall-time:     0 d,  0 h,  0 min, 11.575 sec
 *  cpu-time:     0 d,  0 h,  0 min, 15.582 sec
 * ratio c/w:     1.346 speedup
 SCF:
 * wall-time:     0 d,  0 h,  0 min, 10.980 sec
 *  cpu-time:     0 d,  0 h,  0 min, 15.056 sec
 * ratio c/w:     1.371 speedup

normal termination of xtb
