      -----------------------------------------------------------      
     |                   =====================                   |     
     |                           x T B                           |     
     |                   =====================                   |     
     |                         S. Grimme                         |     
     |          Mulliken Center for Theoretical Chemistry        |     
     |                    University of Bonn                     |     
      -----------------------------------------------------------      

   * xtb version 6.7.1 (26dd68d) compiled by 'froitzheim@fs7' on 2026-05-14

   xtb is free software: you can redistribute it and/or modify it under
   the terms of the GNU Lesser General Public License as published by
   the Free Software Foundation, either version 3 of the License, or
   (at your option) any later version.
   
   xtb is distributed in the hope that it will be useful,
   but WITHOUT ANY WARRANTY; without even the implied warranty of
   MERCHANTABILITY or FITNESS FOR A PARTICULAR PURPOSE.  See the
   GNU Lesser General Public License for more details.
   
   Cite this work as:
   * C. Bannwarth, E. Caldeweyher, S. Ehlert, A. Hansen, P. Pracht,
     J. Seibert, S. Spicher, S. Grimme, WIREs Comput. Mol. Sci., 2020, 11,
     e01493. DOI: 10.1002/wcms.1493
   
   for g-xTB:
   * T. Froitzheim, M. Müller, A. Hansen, S. Grimme, ChemRxiv, 2025, preprint.
     DOI: 10.26434/chemrxiv-2025-bjxv
   for GFN2-xTB:
   * C. Bannwarth, S. Ehlert and S. Grimme., J. Chem. Theory Comput., 2019,
     15, 1652-1671. DOI: 10.1021/acs.jctc.8b01176
   for GFN1-xTB:
   * S. Grimme, C. Bannwarth, P. Shushkov, J. Chem. Theory Comput., 2017,
     13, 1989-2009. DOI: 10.1021/acs.jctc.7b00118
   for GFN0-xTB:
   * P. Pracht, E. Caldeweyher, S. Ehlert, S. Grimme, ChemRxiv, 2019, preprint.
     DOI: 10.26434/chemrxiv.8326202.v1
   for GFN-FF:
   * S. Spicher and S. Grimme, Angew. Chem. Int. Ed., 2020, 59, 15665-15673.
     DOI: 10.1002/anie.202004239
   
   for ALPB and GBSA implicit solvation:
   * S. Ehlert, M. Stahn, S. Spicher, S. Grimme, J. Chem. Theory Comput.,
     2021, 17, 4250-4261. DOI: 10.1021/acs.jctc.1c00471
   
   for ddCOSMO and CPCM-X implicit solvation:
   * M. Stahn, S. Ehlert, S. Grimme, J. Phys. Chem. A,
     2023, XX, XXXX-XXXX. DOI: 10.1021/acs.jpca.3c04382
   
   for DFT-D4:
   * E. Caldeweyher, C. Bannwarth and S. Grimme, J. Chem. Phys., 2017,
     147, 034112. DOI: 10.1063/1.4993215
   * E. Caldeweyher, S. Ehlert, A. Hansen, H. Neugebauer, S. Spicher,
     C. Bannwarth and S. Grimme, J. Chem. Phys., 2019, 150, 154122.
     DOI: 10.1063/1.5090222
   * E. Caldeweyher, J.-M. Mewes, S. Ehlert and S. Grimme, Phys. Chem. Chem. Phys.
     2020, 22, 8499-8512. DOI: 10.1039/D0CP00502A
   
   for sTDA-xTB:
   * S. Grimme and C. Bannwarth, J. Chem. Phys., 2016, 145, 054103.
     DOI: 10.1063/1.4959605
   
   in the mass-spec context:
   * V. Asgeirsson, C. Bauer and S. Grimme, Chem. Sci., 2017, 8, 4879.
     DOI: 10.1039/c7sc00601b
   * J. Koopman and S. Grimme, ACS Omega 2019, 4, 12, 15120-15133.
     DOI: 10.1021/acsomega.9b02011
   
   for metadynamics refer to:
   * S. Grimme, J. Chem. Theory Comput., 2019, 155, 2847-2862
     DOI: 10.1021/acs.jctc.9b00143
   
   for SPH calculations refer to:
   * S. Spicher and S. Grimme, J. Chem. Theory Comput., 2021, 17, 1701-1714
     DOI: 10.1021/acs.jctc.0c01306
   
   for ONIOM refer to:
   * C. Plett, A. Katbashev, S. Ehlert, S. Grimme, M. Bursch,
     Phys. Chem. Chem. Phys., 2023, 25, 17860-17868. DOI: 10.1039/D3CP02178E
   
   for DIPRO refer to:
   * J. Kohn, N. Gildemeister, S. Grimme, D. Fazzi, A. Hansen,
     J. Chem. Phys. 159, 144106 (2023). DOI: 10.1063/5.0167484
   
   for PTB refer to:
   * S. Grimme, M. Mueller, A. Hansen, J. Chem. Phys., 2023, 158, 124111.
     DOI: 10.1063/5.0137838
   
   with help from (in alphabetical order)
   P. Atkinson, C. Bannwarth, F. Bohle, G. Brandenburg, E. Caldeweyher,
   M. Checinski, S. Dohm, S. Ehlert, S. Ehrlich, M. Friede, T. Froitzheim,
   I. Gerasimov, C. Hölzer, A. Katbashev, J. Kohn, J. Koopman, C. Lavigne,
   S. Lehtola, F. März, M. Müller, F. Musil, H. Neugebauer, J. Pisarek,
   C. Plett, P. Pracht, F. Pultar, J. Seibert, P. Shushkov, S. Spicher,
   M. Stahn, M. Steiner, T. Strunk, J. Stückrath, T. Rose, and J. Unsleber
   
 * started run on 2026/05/23 at 12:43:43.666     
   ID    Z sym.   atoms
    1    7 N      1, 5, 10, 17, 23, 25, 28, 34, 41, 46, 50
    2    6 C      2, 3, 6-8, 11-15, 18-21, 24, 26, 27, 29-32, 35-38, 40,
                  42-45, 48, 49, 51-53
    3    8 O      4, 9, 16, 22, 33, 39, 47
    4    1 H      54-110

           -------------------------------------------------
          |                Calculation Setup                |
           -------------------------------------------------

          program call               : /home/xchen/software/xtb-6.7.1-gxtb/bin/xtb /home/xchen/Test/benchmark/md_sampled/07_7_0083_0/snap_0094.xyz --charge 0 --gxtb --norestart
          coordinate file            : /home/xchen/Test/benchmark/md_sampled/07_7_0083_0/snap_0094.xyz
          omp threads                :                    48

core increment energy         -2.2595336125909E+03 Eh
dispersion energy              2.7670740902209E-02 Eh
molecular charge               0.0000000000000E+00 e
number of electrons            2.9399999999735E+02 e
number of unpaired electrons   0.0000000000000E+00 e
wavefunction                   restricted
integral cutoff                2.6907767250513E+01 bohr
energy convergence             1.0000000000000E-06 Eh
density convergence            2.0000000000000E-05 e

------------------------------------------------------------
  cycle        total energy    energy error   density error
------------------------------------------------------------
      1     -2495.638034603  -2.3613209E+02   0.0000000E+00
      2     -2496.044868132  -4.0683353E-01   1.9134567E-02
      3     -2496.296284350  -2.5141622E-01   1.5139203E-02
      4     -2496.808289788  -5.1200544E-01   1.2032147E-02
      5     -2496.819474225  -1.1184437E-02   9.4321363E-04
      6     -2496.820207834  -7.3360933E-04   1.6052448E-04
      7     -2496.820286070  -7.8235506E-05   5.0693272E-05
      8     -2496.820291999  -5.9290213E-06   1.3262351E-05
      9     -2496.820292786  -7.8721379E-07   3.4615261E-06
------------------------------------------------------------

electronic energy             -2.3731435093603E+02 Eh
total energy                  -2.4968202927860E+03 Eh

Post processing:
 | Mayer-Wiberg bond orders
 | Molecular Multipole Moments

 total:                                  18.678 sec
 - increment                              0.000 sec (  0%)
 - repulsion                              0.012 sec (  0%)
 - dispersion                             0.700 sec (  3%)
 - coulomb                                0.265 sec (  1%)
 - exchange                               0.007 sec (  0%)
 - hamiltonian                            0.512 sec (  2%)
 - acp                                    0.476 sec (  2%)
 - spin polarization                      0.000 sec (  0%)
 - post processing                        0.182 sec (  0%)
 - scc                                   14.961 sec ( 80%)
 - coulomb gradient                       0.141 sec (  0%)
 - dispersion gradient                    0.190 sec (  1%)
 - exchange gradient                      0.441 sec (  2%)
 - repulsion gradient                     0.007 sec (  0%)
 - acp gradient                           0.429 sec (  2%)
 - hamiltonian gradient                   0.527 sec (  2%)
 - gradient                               1.735 sec (  9%)

         :::::::::::::::::::::::::::::::::::::::::::::::::::::
         ::                     SUMMARY                     ::
         :::::::::::::::::::::::::::::::::::::::::::::::::::::
         :: total energy           -2496.820292786023 Eh    ::
         :: gradient norm              0.441095442454 Eh/a0 ::
         :: HOMO-LUMO gap              8.795249924503 eV    ::
         ::.................................................::
         :: add. restraining           0.000000000000 Eh    ::
         :: total charge              -0.000000000000 e     ::
         :::::::::::::::::::::::::::::::::::::::::::::::::::::

           -------------------------------------------------
          |                Property Printout                |
           -------------------------------------------------

    * Orbital Energies and Occupations
------------------------------------------------------------------
      #    Occupation            Energy/Eh            Energy/eV
------------------------------------------------------------------
      1        2.0000           -1.3562226             -36.9047
    ...           ...                  ...                  ...
    135        2.0000           -0.3638528              -9.9009
    136        2.0000           -0.3624206              -9.8620
    137        2.0000           -0.3614758              -9.8363
    138        2.0000           -0.3593733              -9.7790
    139        2.0000           -0.3586687              -9.7599
    140        2.0000           -0.3525449              -9.5932
    141        2.0000           -0.3522597              -9.5855
    142        2.0000           -0.3473220              -9.4511
    143        2.0000           -0.3466801              -9.4336
    144        2.0000           -0.3436619              -9.3515
    145        2.0000           -0.3366111              -9.1597
    146        2.0000           -0.3303694              -8.9898
    147        2.0000           -0.3176655              -8.6441 (HOMO)
    148                          0.0055540               0.1511 (LUMO)
    149                          0.0207953               0.5659
    150                          0.0316044               0.8600
    151                          0.0361628               0.9840
    152                          0.0433322               1.1791
    153                          0.0467850               1.2731
    154                          0.0504648               1.3732
    155                          0.0659306               1.7941
    156                          0.1068269               2.9069
    157                          0.1606266               4.3709
    158                          0.1644604               4.4752
    ...                                ...                  ...
    269                          0.7843969              21.3445
------------------------------------------------------------------
               HL-Gap            0.3232195 Eh            8.7952 eV
------------------------------------------------------------------

Atomic charges and shell populations (in atomic units):
------------------------------------------------------
     #    Z                q          p(s)       p(p)
------------------------------------------------------
     1    7 N      -0.330085      1.343868   3.986217
     2    6 C      -0.086365      1.127434   2.958931
     3    6 C       0.430956      1.094611   2.474434
     4    8 O      -0.523316      1.858313   4.665004
     5    7 N      -0.316557      1.342817   3.973740
     6    6 C      -0.015388      1.111950   2.903438
     7    6 C       0.410289      1.097837   2.491874
     8    6 C       0.012201      1.137911   2.849888
     9    8 O      -0.546541      1.852937   4.693603
    10    7 N      -0.264466      1.369050   3.895416
    11    6 C      -0.184409      1.156325   3.028084
    12    6 C      -0.062188      1.139527   2.922661
    13    6 C       0.411840      1.129926   2.458233
    14    6 C      -0.196991      1.159570   3.037421
    15    6 C       0.021800      1.118747   2.859453
    16    8 O      -0.562478      1.870006   4.692472
    17    7 N      -0.352702      1.385589   3.967112
    18    6 C      -0.159592      1.150573   3.009018
    19    6 C       0.432749      1.105108   2.462143
    20    6 C       0.028404      1.115042   2.856554
    21    6 C       0.016570      1.113953   2.869476
    22    8 O      -0.541066      1.861650   4.679416
    23    7 N      -0.326685      1.588471   3.738214
    24    6 C      -0.085439      1.139675   2.945764
    25    7 N      -0.248410      1.397257   3.851153
    26    6 C      -0.155165      1.146360   3.008805
    27    6 C       0.039445      1.126480   2.834075
    28    7 N      -0.207459      1.360751   3.846708
    29    6 C      -0.072407      1.154049   2.918358
    30    6 C       0.437347      1.099710   2.462943
    31    6 C      -0.174529      1.172050   3.002479
    32    6 C       0.002662      1.108046   2.889292
    33    8 O      -0.568848      1.850129   4.718719
    34    7 N      -0.315459      1.363067   3.952392
    35    6 C      -0.180907      1.137531   3.043376
    36    6 C       0.407263      1.090924   2.501812
    37    6 C      -0.179829      1.163789   3.016040
    38    6 C       0.014061      1.120912   2.865027
    39    8 O      -0.574387      1.855976   4.718411
    40    6 C      -0.200798      1.178926   3.021872
    41    7 N      -0.346514      1.358945   3.987569
    42    6 C      -0.173286      1.148671   3.024615
    43    6 C      -0.094859      1.149834   2.945026
    44    6 C       0.417697      1.081337   2.500967
    45    6 C      -0.171294      1.139006   3.032288
    46    7 N      -0.505016      1.503896   4.001120
    47    8 O      -0.520360      1.845668   4.674692
    48    6 C      -0.190804      1.163456   3.027348
    49    6 C      -0.095188      1.128104   2.967085
    50    7 N      -0.517417      1.392449   4.124969
    51    6 C      -0.110017      1.149802   2.960216
    52    6 C      -0.265742      1.164427   3.101315
    53    6 C      -0.242840      1.183042   3.059798
    54    1 H       0.285247      0.714753
    55    1 H       0.161679      0.838321
    56    1 H       0.102551      0.897449
    57    1 H       0.256442      0.743558
    58    1 H       0.115295      0.884705
    59    1 H       0.133009      0.866991
    60    1 H       0.115971      0.884029
    61    1 H       0.097997      0.902003
    62    1 H       0.133332      0.866668
    63    1 H       0.088808      0.911192
    64    1 H       0.102929      0.897071
    65    1 H       0.118256      0.881744
    66    1 H       0.128911      0.871089
    67    1 H       0.302143      0.697857
    68    1 H       0.126505      0.873495
    69    1 H       0.132518      0.867482
    70    1 H       0.138973      0.861027
    71    1 H       0.113537      0.886463
    72    1 H       0.104771      0.895229
    73    1 H       0.119095      0.880905
    74    1 H       0.136598      0.863402
    75    1 H       0.259630      0.740370
    76    1 H       0.112428      0.887572
    77    1 H       0.121493      0.878507
    78    1 H       0.074967      0.925033
    79    1 H       0.098968      0.901032
    80    1 H       0.143142      0.856858
    81    1 H       0.297204      0.702796
    82    1 H       0.100896      0.899104
    83    1 H       0.111202      0.888798
    84    1 H       0.081226      0.918774
    85    1 H       0.083975      0.916025
    86    1 H       0.131457      0.868543
    87    1 H       0.102659      0.897341
    88    1 H       0.106195      0.893805
    89    1 H       0.264396      0.735604
    90    1 H       0.125262      0.874738
    91    1 H       0.069364      0.930636
    92    1 H       0.100139      0.899861
    93    1 H       0.092989      0.907011
    94    1 H       0.095833      0.904167
    95    1 H       0.100384      0.899616
    96    1 H       0.208937      0.791063
    97    1 H       0.206471      0.793529
    98    1 H       0.104369      0.895631
    99    1 H       0.075932      0.924068
   100    1 H       0.085659      0.914341
   101    1 H       0.100593      0.899407
   102    1 H       0.230839      0.769161
   103    1 H       0.219009      0.780991
   104    1 H       0.088456      0.911544
   105    1 H       0.117188      0.882812
   106    1 H       0.094595      0.905405
   107    1 H       0.095716      0.904284
   108    1 H       0.097861      0.902139
   109    1 H       0.088476      0.911524
   110    1 H       0.080042      0.919958
------------------------------------------------------


Wiberg/Mayer (AO) data.
largest (>0.10) Wiberg bond orders for each atom

 ---------------------------------------------------------------------------
     #   Z sym  total        # sym  WBO       # sym  WBO       # sym  WBO
 ---------------------------------------------------------------------------
     1   7 N    3.335 --     7 C    1.244     2 C    0.966    54 O    0.883
                             9 C    0.162
     2   6 C    3.916 --     1 N    0.966     3 C    0.961    56 O    0.957
                            55 O    0.927
     3   6 C    3.876 --     4 C    1.654     5 N    1.195     2 C    0.961
     4   8 C    1.950 --     3 C    1.654     5 N    0.161
     5   7 N    3.350 --     3 C    1.195     6 C    0.994    57 O    0.904
                             4 C    0.161
     6   6 C    3.943 --     5 N    0.994    51 C    0.957    58 O    0.939
                            44 C    0.909
     7   6 C    3.871 --     9 C    1.637     1 N    1.244     8 C    0.916
     8   6 C    3.925 --    11 C    0.983    10 N    0.955    59 O    0.932
                             7 C    0.916
     9   8 C    1.929 --     7 C    1.637     1 N    0.162
    10   7 N    3.346 --    13 C    1.188     8 C    0.955    12 C    0.954
                            16 C    0.130
    11   6 C    3.960 --    14 C    0.997     8 C    0.983    61 O    0.961
                            60 O    0.961
    12   6 C    3.922 --    14 C    1.001    10 N    0.954    62 O    0.953
                            63 O    0.952
    13   6 C    3.843 --    16 C    1.632    10 N    1.188    15 C    0.926
    14   6 C    3.960 --    12 C    1.001    11 C    0.997    64 O    0.965
                            65 O    0.960
    15   6 C    3.932 --    17 N    1.001    18 C    0.956    66 O    0.933
                            13 C    0.926
    16   8 C    1.889 --    13 C    1.632    10 N    0.130
    17   7 N    3.278 --    19 C    1.181    15 C    1.001    67 O    0.838
                            22 C    0.143
    18   6 C    3.950 --    20 C    1.009    15 C    0.956    69 O    0.950
                            68 O    0.945
    19   6 C    3.869 --    22 C    1.664    17 N    1.181    21 C    0.949
    20   6 C    3.955 --    24 C    1.526    23 N    1.285    18 C    1.009
    21   6 C    3.923 --    26 C    1.001    19 C    0.949    70 O    0.932
                            25 N    0.911
    22   8 C    1.924 --    19 C    1.664    17 N    0.143
    23   7 N    2.998 --    27 C    1.527    20 C    1.285
    24   6 C    3.883 --    20 C    1.526    28 N    1.196    71 O    0.942
                            27 C    0.129
    25   7 N    3.361 --    30 C    1.241    29 C    0.935    21 C    0.911
                            33 C    0.148
    26   6 C    3.958 --    21 C    1.001    31 C    0.998    73 O    0.958
                            72 O    0.951
    27   6 C    3.914 --    23 N    1.527    28 N    1.253    74 O    0.945
                            24 C    0.129
    28   7 N    3.515 --    27 C    1.253    24 C    1.196    75 O    0.894
    29   6 C    3.915 --    31 C    1.006    76 O    0.956    77 O    0.952
                            25 N    0.935
    30   6 C    3.863 --    33 C    1.598    25 N    1.241    32 C    0.935
    31   6 C    3.960 --    29 C    1.006    26 C    0.998    79 O    0.959
                            78 O    0.958
    32   6 C    3.929 --    35 C    0.970    34 N    0.951    30 C    0.935
                            80 O    0.928
    33   8 C    1.929 --    30 C    1.598    25 N    0.148
    34   7 N    3.366 --    36 C    1.268    32 C    0.951    81 O    0.832
                            39 C    0.167
    35   6 C    3.964 --    37 C    1.039    32 C    0.970    82 O    0.950
                            83 O    0.940
    36   6 C    3.888 --    39 C    1.596    34 N    1.268    38 C    0.952
    37   6 C    3.964 --    35 C    1.039    40 C    0.970    85 O    0.956
                            84 O    0.954
    38   6 C    3.928 --    42 C    0.981    36 C    0.952    41 N    0.948
                            86 O    0.920
    39   8 C    1.889 --    36 C    1.596    34 N    0.167
    40   6 C    3.958 --    43 C    0.999    37 C    0.970    87 O    0.965
                            88 O    0.961
    41   7 N    3.331 --    44 C    1.230    38 C    0.948    89 O    0.878
                            47 C    0.165
    42   6 C    3.959 --    45 C    1.009    38 C    0.981    91 O    0.955
                            90 O    0.947
    43   6 C    3.944 --    46 N    1.012    40 C    0.999    93 O    0.958
                            92 O    0.956
    44   6 C    3.886 --    47 C    1.671    41 N    1.230     6 C    0.909
    45   6 C    3.967 --    42 C    1.009    48 C    1.006    95 O    0.958
                            94 O    0.952
    46   7 N    2.939 --    43 C    1.012    96 O    0.939    97 O    0.935
    47   8 C    1.965 --    44 C    1.671    41 N    0.165
    48   6 C    3.966 --    45 C    1.006    49 C    0.979    99 O    0.961
                            98 O    0.959
    49   6 C    3.953 --    50 N    1.028    48 C    0.979   100 O    0.962
                           101 O    0.956
    50   7 N    2.959 --    49 C    1.028   103 O    0.937   102 O    0.930
    51   6 C    3.970 --    52 C    1.015    53 C    0.989     6 C    0.957
                           104 O    0.942
    52   6 C    3.952 --    51 C    1.015   107 O    0.968   105 O    0.965
                           106 O    0.935
    53   6 C    3.953 --    51 C    0.989   109 O    0.977   108 O    0.973
                           110 O    0.970
    54   1 O    0.919 --     1 N    0.883
    55   1 O    0.974 --     2 C    0.927
    56   1 O    0.989 --     2 C    0.957
    57   1 O    0.934 --     5 N    0.904
    58   1 O    0.987 --     6 C    0.939
    59   1 O    0.982 --     8 C    0.932
    60   1 O    0.987 --    11 C    0.961
    61   1 O    0.990 --    11 C    0.961
    62   1 O    0.982 --    12 C    0.953
    63   1 O    0.992 --    12 C    0.952
    64   1 O    0.989 --    14 C    0.965
    65   1 O    0.986 --    14 C    0.960
    66   1 O    0.983 --    15 C    0.933
    67   1 O    0.909 --    17 N    0.838
    68   1 O    0.984 --    18 C    0.945
    69   1 O    0.982 --    18 C    0.950
    70   1 O    0.981 --    21 C    0.932
    71   1 O    0.987 --    24 C    0.942
    72   1 O    0.989 --    26 C    0.951
    73   1 O    0.986 --    26 C    0.958
    74   1 O    0.981 --    27 C    0.945
    75   1 O    0.933 --    28 N    0.894
    76   1 O    0.987 --    29 C    0.956
    77   1 O    0.985 --    29 C    0.952
    78   1 O    0.994 --    31 C    0.958
    79   1 O    0.990 --    31 C    0.959
    80   1 O    0.980 --    32 C    0.928
    81   1 O    0.912 --    34 N    0.832
    82   1 O    0.990 --    35 C    0.950
    83   1 O    0.988 --    35 C    0.940
    84   1 O    0.993 --    37 C    0.954
    85   1 O    0.993 --    37 C    0.956
    86   1 O    0.983 --    38 C    0.920
    87   1 O    0.989 --    40 C    0.965
    88   1 O    0.989 --    40 C    0.961
    89   1 O    0.930 --    41 N    0.878
    90   1 O    0.984 --    42 C    0.947
    91   1 O    0.995 --    42 C    0.955
    92   1 O    0.990 --    43 C    0.956
    93   1 O    0.991 --    43 C    0.958
    94   1 O    0.991 --    45 C    0.952
    95   1 O    0.990 --    45 C    0.958
    96   1 O    0.956 --    46 N    0.939
    97   1 O    0.957 --    46 N    0.935
    98   1 O    0.989 --    48 C    0.959
    99   1 O    0.994 --    48 C    0.961
   100   1 O    0.993 --    49 C    0.962
   101   1 O    0.990 --    49 C    0.956
   102   1 O    0.947 --    50 N    0.930
   103   1 O    0.952 --    50 N    0.937
   104   1 O    0.992 --    51 C    0.942
   105   1 O    0.986 --    52 C    0.965
   106   1 O    0.991 --    52 C    0.935
   107   1 O    0.991 --    52 C    0.968
   108   1 O    0.990 --    53 C    0.973
   109   1 O    0.992 --    53 C    0.977
   110   1 O    0.994 --    53 C    0.970
 ---------------------------------------------------------------------------

Topologies differ in total number of bonds
Writing topology from bond orders to xtbtopo.mol

Atomic dipole moments (in atomic units):
---------------------------------------------------------
     #    Z                 x            y            z
---------------------------------------------------------
           total     0.300238    -4.515955    -0.104887
---------------------------------------------------------
         |total|     4.527140    11.506841 Debye


           -------------------------------------------------
          | TOTAL ENERGY            -2496.820292786023 Eh   |
          | GRADIENT NORM               0.441095442454 Eh/α |
           -------------------------------------------------

------------------------------------------------------------------------
 * finished run on 2026/05/23 at 12:44:03.652     
------------------------------------------------------------------------
 total:
 * wall-time:     0 d,  0 h,  0 min, 19.985 sec
 *  cpu-time:     0 d,  0 h,  0 min, 32.889 sec
 * ratio c/w:     1.646 speedup
 SCF:
 * wall-time:     0 d,  0 h,  0 min, 19.327 sec
 *  cpu-time:     0 d,  0 h,  0 min, 32.116 sec
 * ratio c/w:     1.662 speedup

normal termination of xtb
