      -----------------------------------------------------------      
     |                   =====================                   |     
     |                           x T B                           |     
     |                   =====================                   |     
     |                         S. Grimme                         |     
     |          Mulliken Center for Theoretical Chemistry        |     
     |                    University of Bonn                     |     
      -----------------------------------------------------------      

   * xtb version 6.7.1 (26dd68d) compiled by 'froitzheim@fs7' on 2026-05-14

   xtb is free software: you can redistribute it and/or modify it under
   the terms of the GNU Lesser General Public License as published by
   the Free Software Foundation, either version 3 of the License, or
   (at your option) any later version.
   
   xtb is distributed in the hope that it will be useful,
   but WITHOUT ANY WARRANTY; without even the implied warranty of
   MERCHANTABILITY or FITNESS FOR A PARTICULAR PURPOSE.  See the
   GNU Lesser General Public License for more details.
   
   Cite this work as:
   * C. Bannwarth, E. Caldeweyher, S. Ehlert, A. Hansen, P. Pracht,
     J. Seibert, S. Spicher, S. Grimme, WIREs Comput. Mol. Sci., 2020, 11,
     e01493. DOI: 10.1002/wcms.1493
   
   for g-xTB:
   * T. Froitzheim, M. Müller, A. Hansen, S. Grimme, ChemRxiv, 2025, preprint.
     DOI: 10.26434/chemrxiv-2025-bjxv
   for GFN2-xTB:
   * C. Bannwarth, S. Ehlert and S. Grimme., J. Chem. Theory Comput., 2019,
     15, 1652-1671. DOI: 10.1021/acs.jctc.8b01176
   for GFN1-xTB:
   * S. Grimme, C. Bannwarth, P. Shushkov, J. Chem. Theory Comput., 2017,
     13, 1989-2009. DOI: 10.1021/acs.jctc.7b00118
   for GFN0-xTB:
   * P. Pracht, E. Caldeweyher, S. Ehlert, S. Grimme, ChemRxiv, 2019, preprint.
     DOI: 10.26434/chemrxiv.8326202.v1
   for GFN-FF:
   * S. Spicher and S. Grimme, Angew. Chem. Int. Ed., 2020, 59, 15665-15673.
     DOI: 10.1002/anie.202004239
   
   for ALPB and GBSA implicit solvation:
   * S. Ehlert, M. Stahn, S. Spicher, S. Grimme, J. Chem. Theory Comput.,
     2021, 17, 4250-4261. DOI: 10.1021/acs.jctc.1c00471
   
   for ddCOSMO and CPCM-X implicit solvation:
   * M. Stahn, S. Ehlert, S. Grimme, J. Phys. Chem. A,
     2023, XX, XXXX-XXXX. DOI: 10.1021/acs.jpca.3c04382
   
   for DFT-D4:
   * E. Caldeweyher, C. Bannwarth and S. Grimme, J. Chem. Phys., 2017,
     147, 034112. DOI: 10.1063/1.4993215
   * E. Caldeweyher, S. Ehlert, A. Hansen, H. Neugebauer, S. Spicher,
     C. Bannwarth and S. Grimme, J. Chem. Phys., 2019, 150, 154122.
     DOI: 10.1063/1.5090222
   * E. Caldeweyher, J.-M. Mewes, S. Ehlert and S. Grimme, Phys. Chem. Chem. Phys.
     2020, 22, 8499-8512. DOI: 10.1039/D0CP00502A
   
   for sTDA-xTB:
   * S. Grimme and C. Bannwarth, J. Chem. Phys., 2016, 145, 054103.
     DOI: 10.1063/1.4959605
   
   in the mass-spec context:
   * V. Asgeirsson, C. Bauer and S. Grimme, Chem. Sci., 2017, 8, 4879.
     DOI: 10.1039/c7sc00601b
   * J. Koopman and S. Grimme, ACS Omega 2019, 4, 12, 15120-15133.
     DOI: 10.1021/acsomega.9b02011
   
   for metadynamics refer to:
   * S. Grimme, J. Chem. Theory Comput., 2019, 155, 2847-2862
     DOI: 10.1021/acs.jctc.9b00143
   
   for SPH calculations refer to:
   * S. Spicher and S. Grimme, J. Chem. Theory Comput., 2021, 17, 1701-1714
     DOI: 10.1021/acs.jctc.0c01306
   
   for ONIOM refer to:
   * C. Plett, A. Katbashev, S. Ehlert, S. Grimme, M. Bursch,
     Phys. Chem. Chem. Phys., 2023, 25, 17860-17868. DOI: 10.1039/D3CP02178E
   
   for DIPRO refer to:
   * J. Kohn, N. Gildemeister, S. Grimme, D. Fazzi, A. Hansen,
     J. Chem. Phys. 159, 144106 (2023). DOI: 10.1063/5.0167484
   
   for PTB refer to:
   * S. Grimme, M. Mueller, A. Hansen, J. Chem. Phys., 2023, 158, 124111.
     DOI: 10.1063/5.0137838
   
   with help from (in alphabetical order)
   P. Atkinson, C. Bannwarth, F. Bohle, G. Brandenburg, E. Caldeweyher,
   M. Checinski, S. Dohm, S. Ehlert, S. Ehrlich, M. Friede, T. Froitzheim,
   I. Gerasimov, C. Hölzer, A. Katbashev, J. Kohn, J. Koopman, C. Lavigne,
   S. Lehtola, F. März, M. Müller, F. Musil, H. Neugebauer, J. Pisarek,
   C. Plett, P. Pracht, F. Pultar, J. Seibert, P. Shushkov, S. Spicher,
   M. Stahn, M. Steiner, T. Strunk, J. Stückrath, T. Rose, and J. Unsleber
   
 * started run on 2026/05/23 at 08:16:18.832     
   ID    Z sym.   atoms
    1    7 N      1, 5, 10, 16, 18, 21, 27, 34, 42, 50
    2    6 C      2, 3, 6-8, 11-14, 17, 19, 20, 22-25, 28-31, 35-38, 40, 43,
                  44, 46-48
    3    8 O      4, 9, 15, 26, 32, 39, 41, 49
    4   16 S      33, 45
    5    1 H      51-96

           -------------------------------------------------
          |                Calculation Setup                |
           -------------------------------------------------

          program call               : /home/xchen/software/xtb-6.7.1-gxtb/bin/xtb /home/xchen/Test/benchmark/md_sampled/02_6_0901_0/snap_0075.xyz --charge 0 --gxtb --norestart
          coordinate file            : /home/xchen/Test/benchmark/md_sampled/02_6_0901_0/snap_0075.xyz
          omp threads                :                    48

core increment energy         -2.8923536237342E+03 Eh
dispersion energy              2.1458464204146E-02 Eh
molecular charge               0.0000000000000E+00 e
number of electrons            2.7599999999751E+02 e
number of unpaired electrons   0.0000000000000E+00 e
wavefunction                   restricted
integral cutoff                2.6907767250513E+01 bohr
energy convergence             1.0000000000000E-06 Eh
density convergence            2.0000000000000E-05 e

------------------------------------------------------------
  cycle        total energy    energy error   density error
------------------------------------------------------------
      1     -3115.420574269  -2.2308841E+02   0.0000000E+00
      2     -3115.834396901  -4.1382263E-01   1.9768995E-02
      3     -3116.095466723  -2.6106982E-01   1.5621746E-02
      4     -3116.639067227  -5.4360050E-01   1.2393889E-02
      5     -3116.648148153  -9.0809267E-03   8.5382049E-04
      6     -3116.648822745  -6.7459158E-04   1.8434549E-04
      7     -3116.648891732  -6.8987325E-05   6.7638727E-05
      8     -3116.648897363  -5.6304840E-06   2.2535509E-05
      9     -3116.648898309  -9.4658944E-07   3.3833698E-06
------------------------------------------------------------

electronic energy             -2.2431673303934E+02 Eh
total energy                  -3.1166488983093E+03 Eh

Post processing:
 | Mayer-Wiberg bond orders
 | Molecular Multipole Moments

 total:                                  20.309 sec
 - increment                              0.000 sec (  0%)
 - repulsion                              0.013 sec (  0%)
 - dispersion                             0.373 sec (  1%)
 - coulomb                                0.207 sec (  1%)
 - exchange                               0.009 sec (  0%)
 - hamiltonian                            0.893 sec (  4%)
 - acp                                    0.304 sec (  1%)
 - spin polarization                      0.000 sec (  0%)
 - post processing                        0.152 sec (  0%)
 - scc                                   17.391 sec ( 85%)
 - coulomb gradient                       0.046 sec (  0%)
 - dispersion gradient                    0.069 sec (  0%)
 - exchange gradient                      0.219 sec (  1%)
 - repulsion gradient                     0.021 sec (  0%)
 - acp gradient                           0.271 sec (  1%)
 - hamiltonian gradient                   0.487 sec (  2%)
 - gradient                               1.113 sec (  5%)

         :::::::::::::::::::::::::::::::::::::::::::::::::::::
         ::                     SUMMARY                     ::
         :::::::::::::::::::::::::::::::::::::::::::::::::::::
         :: total energy           -3116.648898309340 Eh    ::
         :: gradient norm              0.397054552363 Eh/a0 ::
         :: HOMO-LUMO gap              8.061012375792 eV    ::
         ::.................................................::
         :: add. restraining           0.000000000000 Eh    ::
         :: total charge              -0.000000000000 e     ::
         :::::::::::::::::::::::::::::::::::::::::::::::::::::

           -------------------------------------------------
          |                Property Printout                |
           -------------------------------------------------

    * Orbital Energies and Occupations
------------------------------------------------------------------
      #    Occupation            Energy/Eh            Energy/eV
------------------------------------------------------------------
      1        2.0000           -1.3461078             -36.6295
    ...           ...                  ...                  ...
    126        2.0000           -0.3832741             -10.4294
    127        2.0000           -0.3803853             -10.3508
    128        2.0000           -0.3733287             -10.1588
    129        2.0000           -0.3694467             -10.0532
    130        2.0000           -0.3664978              -9.9729
    131        2.0000           -0.3623778              -9.8608
    132        2.0000           -0.3607064              -9.8153
    133        2.0000           -0.3600280              -9.7969
    134        2.0000           -0.3558525              -9.6832
    135        2.0000           -0.3546697              -9.6511
    136        2.0000           -0.3476760              -9.4607
    137        2.0000           -0.3459904              -9.4149
    138        2.0000           -0.3230452              -8.7905 (HOMO)
    139                         -0.0268085              -0.7295 (LUMO)
    140                          0.0078772               0.2144
    141                          0.0091708               0.2496
    142                          0.0140198               0.3815
    143                          0.0194129               0.5283
    144                          0.0245254               0.6674
    145                          0.0313975               0.8544
    146                          0.0333553               0.9076
    147                          0.0335922               0.9141
    148                          0.0360170               0.9801
    149                          0.0382298               1.0403
    ...                                ...                  ...
    256                          0.8735883              23.7715
------------------------------------------------------------------
               HL-Gap            0.2962367 Eh            8.0610 eV
------------------------------------------------------------------

Atomic charges and shell populations (in atomic units):
-----------------------------------------------------------------
     #    Z                q          p(s)       p(p)       p(d)
-----------------------------------------------------------------
     1    7 N      -0.339811      1.363768   3.976043
     2    6 C       0.016804      1.107724   2.875472
     3    6 C       0.434518      1.109300   2.456181
     4    8 O      -0.488017      1.853048   4.634970
     5    7 N      -0.388776      1.369267   4.019509
     6    6 C       0.003552      1.125527   2.870920
     7    6 C       0.406946      1.093747   2.499307
     8    6 C       0.004067      1.133286   2.862646
     9    8 O      -0.541588      1.846604   4.694984
    10    7 N      -0.342840      1.375530   3.967310
    11    6 C      -0.152430      1.135954   3.016475
    12    6 C       0.414986      1.112484   2.472530
    13    6 C       0.011068      1.114419   2.874513
    14    6 C       0.024648      1.123873   2.851480
    15    8 O      -0.546715      1.863095   4.683620
    16    7 N      -0.356351      1.642720   3.713631
    17    6 C      -0.076268      1.147222   2.929046
    18    7 N      -0.292463      1.336664   3.955799
    19    6 C      -0.151142      1.155275   2.995868
    20    6 C       0.065892      1.132968   2.801140
    21    7 N      -0.218551      1.359921   3.858630
    22    6 C      -0.106840      1.136976   2.969864
    23    6 C       0.428940      1.110882   2.460177
    24    6 C      -0.208661      1.184689   3.023972
    25    6 C       0.012686      1.117154   2.870160
    26    8 O      -0.459202      1.852482   4.606721
    27    7 N      -0.354528      1.375854   3.978673
    28    6 C      -0.166247      1.154842   3.011405
    29    6 C       0.366510      1.149064   2.484427
    30    6 C      -0.144921      1.185240   2.959682
    31    6 C       0.012609      1.145731   2.841660
    32    8 O      -0.520019      1.857359   4.662659
    33   16 S      -0.199597      1.904177   4.229529   0.065891
    34    7 N      -0.304207      1.346499   3.957707
    35    6 C      -0.140322      1.164537   2.975785
    36    6 C      -0.207804      1.195317   3.012487
    37    6 C       0.404656      1.106844   2.488500
    38    6 C      -0.203328      1.159570   3.043758
    39    8 O      -0.560660      1.860611   4.700049
    40    6 C       0.384524      1.105667   2.509808
    41    8 O      -0.539654      1.849958   4.689695
    42    7 N      -0.429952      1.372987   4.056965
    43    6 C      -0.159811      1.158460   3.001350
    44    6 C      -0.126782      1.160422   2.966360
    45   16 S      -0.198458      1.866754   4.248604   0.083100
    46    6 C      -0.203645      1.191236   3.012408
    47    6 C      -0.201287      1.162133   3.039154
    48    6 C       0.408734      1.101975   2.489291
    49    8 O      -0.504206      1.854889   4.649317
    50    7 N      -0.441521      1.369376   4.072145
    51    1 H       0.270597      0.729403
    52    1 H       0.133999      0.866001
    53    1 H       0.243350      0.756650
    54    1 H       0.168375      0.831625
    55    1 H       0.130568      0.869432
    56    1 H       0.268981      0.731019
    57    1 H       0.119449      0.880551
    58    1 H       0.137402      0.862598
    59    1 H       0.139072      0.860928
    60    1 H       0.158695      0.841305
    61    1 H       0.105662      0.894338
    62    1 H       0.125825      0.874175
    63    1 H       0.127740      0.872260
    64    1 H       0.261795      0.738205
    65    1 H       0.082056      0.917944
    66    1 H       0.105785      0.894215
    67    1 H       0.101683      0.898317
    68    1 H       0.109458      0.890542
    69    1 H       0.153709      0.846291
    70    1 H       0.265569      0.734431
    71    1 H       0.104191      0.895809
    72    1 H       0.101241      0.898759
    73    1 H       0.112584      0.887416
    74    1 H       0.104143      0.895857
    75    1 H       0.125554      0.874446
    76    1 H       0.294481      0.705519
    77    1 H       0.114910      0.885090
    78    1 H       0.128581      0.871419
    79    1 H       0.107251      0.892749
    80    1 H       0.112792      0.887208
    81    1 H       0.103149      0.896851
    82    1 H       0.138038      0.861962
    83    1 H       0.097067      0.902933
    84    1 H       0.267376      0.732624
    85    1 H       0.255094      0.744906
    86    1 H       0.113517      0.886483
    87    1 H       0.071712      0.928288
    88    1 H       0.154006      0.845994
    89    1 H       0.112251      0.887749
    90    1 H       0.101751      0.898249
    91    1 H       0.086307      0.913693
    92    1 H       0.105863      0.894137
    93    1 H       0.092934      0.907066
    94    1 H       0.150699      0.849301
    95    1 H       0.264338      0.735662
    96    1 H       0.245862      0.754138
-----------------------------------------------------------------


Wiberg/Mayer (AO) data.
largest (>0.10) Wiberg bond orders for each atom

 ---------------------------------------------------------------------------
     #   Z sym  total        # sym  WBO       # sym  WBO       # sym  WBO
 ---------------------------------------------------------------------------
     1   7 N    3.340 --     7 C    1.240     2 C    0.958    51 N    0.878
                             9 C    0.167
     2   6 C    3.932 --    43 C    0.998     1 N    0.958     3 C    0.935
                            52 N    0.923
     3   6 C    3.858 --     4 C    1.736     5 N    1.103     2 C    0.935
     4   8 C    2.009 --     3 C    1.736     5 N    0.158
     5   7 N    3.242 --     3 C    1.103     6 C    0.966    53 N    0.909
                             4 C    0.158
     6   6 C    3.931 --    47 C    0.988     5 N    0.966    37 C    0.932
                            54 N    0.921
     7   6 C    3.875 --     9 C    1.647     1 N    1.240     8 C    0.929
     8   6 C    3.926 --    11 C    0.976    10 N    0.948    55 N    0.937
                             7 C    0.929
     9   8 C    1.945 --     7 C    1.647     1 N    0.167
    10   7 N    3.294 --    12 C    1.218     8 C    0.948    56 N    0.889
                            15 C    0.150
    11   6 C    3.954 --    13 C    1.005     8 C    0.976    57 N    0.948
                            58 N    0.946
    12   6 C    3.867 --    15 C    1.643    10 N    1.218    14 C    0.927
    13   6 C    3.959 --    17 C    1.626    16 N    1.205    11 C    1.005
    14   6 C    3.931 --    19 C    0.987    18 N    0.957    59 N    0.937
                            12 C    0.927
    15   8 C    1.918 --    12 C    1.643    10 N    0.150
    16   7 N    2.964 --    20 C    1.520    13 C    1.205    21 N    0.112
    17   6 C    3.879 --    13 C    1.626    21 N    1.119    60 N    0.935
    18   7 N    3.315 --    23 C    1.080    22 C    0.994    14 C    0.957
                            26 C    0.149
    19   6 C    3.956 --    24 C    0.991    14 C    0.987    61 N    0.959
                            62 N    0.956
    20   6 C    3.924 --    16 N    1.520    21 N    1.315    63 N    0.944
    21   7 N    3.518 --    20 C    1.315    17 C    1.119    64 N    0.896
                            16 N    0.112
    22   6 C    3.933 --    18 N    0.994    24 C    0.985    66 N    0.956
                            65 N    0.951
    23   6 C    3.858 --    26 C    1.774    18 N    1.080    25 C    0.919
    24   6 C    3.947 --    19 C    0.991    22 C    0.985    67 N    0.962
                            68 N    0.961
    25   6 C    3.929 --    28 C    1.002    27 N    0.955    69 N    0.927
                            23 C    0.919
    26   8 C    2.035 --    23 C    1.774    18 N    0.149
    27   7 N    3.282 --    29 C    1.190    25 C    0.955    70 N    0.890
                            32 C    0.148
    28   6 C    3.962 --    25 C    1.002    30 C    0.989    72 N    0.955
                            71 N    0.950
    29   6 C    3.837 --    32 C    1.693    27 N    1.190    31 C    0.859
    30   6 C    3.933 --    33 O    0.992    28 C    0.989    74 N    0.958
                            73 N    0.956
    31   6 C    3.921 --    34 N    1.012    35 C    0.976    75 N    0.940
                            29 C    0.859
    32   8 C    1.966 --    29 C    1.693    27 N    0.148
    33  16 O    2.074 --    36 C    0.992    30 C    0.992
    34   7 N    3.378 --    37 C    1.237    31 C    1.012    76 N    0.879
                            39 C    0.158
    35   6 C    3.948 --    38 C    0.996    31 C    0.976    78 N    0.955
                            77 N    0.952
    36   6 C    3.924 --    33 O    0.992    79 N    0.973    81 N    0.971
                            80 N    0.966
    37   6 C    3.871 --    39 C    1.621    34 N    1.237     6 C    0.932
    38   6 C    3.960 --    35 C    0.996    83 N    0.956    40 C    0.954
                            82 N    0.948
    39   8 C    1.908 --    37 C    1.621    34 N    0.158
    40   6 C    3.876 --    41 C    1.671    42 N    1.223    38 C    0.954
    41   8 C    1.937 --    40 C    1.671    42 N    0.168
    42   7 N    3.243 --    40 C    1.223    85 N    0.909    84 N    0.903
                            41 C    0.168
    43   6 C    3.958 --     2 C    0.998    44 C    0.980    87 N    0.956
                            86 N    0.948
    44   6 C    3.931 --    45 O    1.024    43 C    0.980    89 N    0.951
                            88 N    0.926
    45  16 O    2.116 --    44 C    1.024    46 C    0.990
    46   6 C    3.933 --    45 O    0.990    90 N    0.972    91 N    0.972
                            92 N    0.969
    47   6 C    3.957 --     6 C    0.988    93 N    0.960    48 C    0.947
                            94 N    0.940
    48   6 C    3.874 --    49 C    1.684    50 N    1.206    47 C    0.947
    49   8 C    1.974 --    48 C    1.684    50 N    0.170
    50   7 N    3.238 --    48 C    1.206    96 N    0.919    95 N    0.905
                            49 C    0.170
    51   1 N    0.927 --     1 N    0.878
    52   1 N    0.982 --     2 C    0.923
    53   1 N    0.941 --     5 N    0.909
    54   1 N    0.972 --     6 C    0.921
    55   1 N    0.983 --     8 C    0.937
    56   1 N    0.928 --    10 N    0.889
    57   1 N    0.986 --    11 C    0.948
    58   1 N    0.981 --    11 C    0.946
    59   1 N    0.981 --    14 C    0.937
    60   1 N    0.975 --    17 C    0.935
    61   1 N    0.989 --    19 C    0.959
    62   1 N    0.984 --    19 C    0.956
    63   1 N    0.984 --    20 C    0.944
    64   1 N    0.931 --    21 N    0.896
    65   1 N    0.993 --    22 C    0.951
    66   1 N    0.989 --    22 C    0.956
    67   1 N    0.990 --    24 C    0.962
    68   1 N    0.988 --    24 C    0.961
    69   1 N    0.976 --    25 C    0.927
    70   1 N    0.929 --    27 N    0.890
    71   1 N    0.989 --    28 C    0.950
    72   1 N    0.990 --    28 C    0.955
    73   1 N    0.987 --    30 C    0.956
    74   1 N    0.989 --    30 C    0.958
    75   1 N    0.984 --    31 C    0.940
    76   1 N    0.913 --    34 N    0.879
    77   1 N    0.987 --    35 C    0.952
    78   1 N    0.983 --    35 C    0.955
    79   1 N    0.988 --    36 C    0.973
    80   1 N    0.987 --    36 C    0.966
    81   1 N    0.989 --    36 C    0.971
    82   1 N    0.981 --    38 C    0.948
    83   1 N    0.991 --    38 C    0.956
    84   1 N    0.929 --    42 N    0.903
    85   1 N    0.935 --    42 N    0.909
    86   1 N    0.987 --    43 C    0.948
    87   1 N    0.995 --    43 C    0.956
    88   1 N    0.976 --    44 C    0.926
    89   1 N    0.987 --    44 C    0.951
    90   1 N    0.990 --    46 C    0.972
    91   1 N    0.993 --    46 C    0.972
    92   1 N    0.989 --    46 C    0.969
    93   1 N    0.991 --    47 C    0.960
    94   1 N    0.977 --    47 C    0.940
    95   1 N    0.930 --    50 N    0.905
    96   1 N    0.940 --    50 N    0.919
 ---------------------------------------------------------------------------

Topologies differ in total number of bonds
Writing topology from bond orders to xtbtopo.mol

Atomic dipole moments (in atomic units):
---------------------------------------------------------
     #    Z                 x            y            z
---------------------------------------------------------
           total     0.128952    -4.796230    -3.814454
---------------------------------------------------------
         |total|     6.129479    15.579580 Debye


           -------------------------------------------------
          | TOTAL ENERGY            -3116.648898309340 Eh   |
          | GRADIENT NORM               0.397054552363 Eh/α |
           -------------------------------------------------

------------------------------------------------------------------------
 * finished run on 2026/05/23 at 08:16:40.196     
------------------------------------------------------------------------
 total:
 * wall-time:     0 d,  0 h,  0 min, 21.363 sec
 *  cpu-time:     0 d,  0 h,  0 min, 30.562 sec
 * ratio c/w:     1.431 speedup
 SCF:
 * wall-time:     0 d,  0 h,  0 min, 20.815 sec
 *  cpu-time:     0 d,  0 h,  0 min, 30.099 sec
 * ratio c/w:     1.446 speedup

normal termination of xtb
