      -----------------------------------------------------------      
     |                   =====================                   |     
     |                           x T B                           |     
     |                   =====================                   |     
     |                         S. Grimme                         |     
     |          Mulliken Center for Theoretical Chemistry        |     
     |                    University of Bonn                     |     
      -----------------------------------------------------------      

   * xtb version 6.7.1 (edcfbbe) compiled by 'albert@albert-system' on 2024-07-22

   xtb is free software: you can redistribute it and/or modify it under
   the terms of the GNU Lesser General Public License as published by
   the Free Software Foundation, either version 3 of the License, or
   (at your option) any later version.
   
   xtb is distributed in the hope that it will be useful,
   but WITHOUT ANY WARRANTY; without even the implied warranty of
   MERCHANTABILITY or FITNESS FOR A PARTICULAR PURPOSE.  See the
   GNU Lesser General Public License for more details.
   
   Cite this work as:
   * C. Bannwarth, E. Caldeweyher, S. Ehlert, A. Hansen, P. Pracht,
     J. Seibert, S. Spicher, S. Grimme, WIREs Comput. Mol. Sci., 2020, 11,
     e01493. DOI: 10.1002/wcms.1493
   
   for GFN2-xTB:
   * C. Bannwarth, S. Ehlert and S. Grimme., J. Chem. Theory Comput., 2019,
     15, 1652-1671. DOI: 10.1021/acs.jctc.8b01176
   for GFN1-xTB:
   * S. Grimme, C. Bannwarth, P. Shushkov, J. Chem. Theory Comput., 2017,
     13, 1989-2009. DOI: 10.1021/acs.jctc.7b00118
   for GFN0-xTB:
   * P. Pracht, E. Caldeweyher, S. Ehlert, S. Grimme, ChemRxiv, 2019, preprint.
     DOI: 10.26434/chemrxiv.8326202.v1
   for GFN-FF:
   * S. Spicher and S. Grimme, Angew. Chem. Int. Ed., 2020, 59, 15665-15673.
     DOI: 10.1002/anie.202004239
   
   for ALPB and GBSA implicit solvation:
   * S. Ehlert, M. Stahn, S. Spicher, S. Grimme, J. Chem. Theory Comput.,
     2021, 17, 4250-4261. DOI: 10.1021/acs.jctc.1c00471
   
   for ddCOSMO and CPCM-X implicit solvation:
   * M. Stahn, S. Ehlert, S. Grimme, J. Phys. Chem. A,
     2023, XX, XXXX-XXXX. DOI: 10.1021/acs.jpca.3c04382
   
   for DFT-D4:
   * E. Caldeweyher, C. Bannwarth and S. Grimme, J. Chem. Phys., 2017,
     147, 034112. DOI: 10.1063/1.4993215
   * E. Caldeweyher, S. Ehlert, A. Hansen, H. Neugebauer, S. Spicher,
     C. Bannwarth and S. Grimme, J. Chem. Phys., 2019, 150, 154122.
     DOI: 10.1063/1.5090222
   * E. Caldeweyher, J.-M. Mewes, S. Ehlert and S. Grimme, Phys. Chem. Chem. Phys.
     2020, 22, 8499-8512. DOI: 10.1039/D0CP00502A
   
   for sTDA-xTB:
   * S. Grimme and C. Bannwarth, J. Chem. Phys., 2016, 145, 054103.
     DOI: 10.1063/1.4959605
   
   in the mass-spec context:
   * V. Asgeirsson, C. Bauer and S. Grimme, Chem. Sci., 2017, 8, 4879.
     DOI: 10.1039/c7sc00601b
   * J. Koopman and S. Grimme, ACS Omega 2019, 4, 12, 15120-15133.
     DOI: 10.1021/acsomega.9b02011
   
   for metadynamics refer to:
   * S. Grimme, J. Chem. Theory Comput., 2019, 155, 2847-2862
     DOI: 10.1021/acs.jctc.9b00143
   
   for SPH calculations refer to:
   * S. Spicher and S. Grimme, J. Chem. Theory Comput., 2021, 17, 1701-1714
     DOI: 10.1021/acs.jctc.0c01306
   
   for ONIOM refer to:
   * C. Plett, A. Katbashev, S. Ehlert, S. Grimme, M. Bursch,
     Phys. Chem. Chem. Phys., 2023, 25, 17860-17868. DOI: 10.1039/D3CP02178E
   
   for DIPRO refer to:
   * J. Kohn, N. Gildemeister, S. Grimme, D. Fazzi, A. Hansen,
     J. Chem. Phys., 2023, just accepted.
   
   for PTB refer to:
   * S. Grimme, M. Mueller, A. Hansen, J. Chem. Phys., 2023, 158, 124111.
     DOI: 10.1063/5.0137838
   
   with help from (in alphabetical order)
   P. Atkinson, C. Bannwarth, F. Bohle, G. Brandenburg, E. Caldeweyher
   M. Checinski, S. Dohm, S. Ehlert, S. Ehrlich, I. Gerasimov, C. Hölzer
   A. Katbashev, J. Kohn, J. Koopman, C. Lavigne, S. Lehtola, F. März, M. Müller,
   F. Musil, H. Neugebauer, J. Pisarek, C. Plett, P. Pracht, F. Pultar,
   J. Seibert, P. Shushkov, S. Spicher, M. Stahn, M. Steiner, T. Strunk,
   J. Stückrath, T. Rose, and J. Unsleber
   
 * started run on 2026/05/23 at 13:01:27.984     
   ID    Z sym.   atoms
    1    7 N      1, 5, 10, 17, 27, 34, 39, 43, 54, 56, 57
    2    6 C      2, 3, 6-8, 11-14, 16, 18, 21-23, 28-31, 33, 35-38, 40,
                  44-48, 50-53, 55, 58
    3    8 O      4, 9, 15, 19, 20, 24-26, 32, 41, 49
    4   16 S      42
    5    1 H      59-117

           -------------------------------------------------
          |                Calculation Setup                |
           -------------------------------------------------

          program call               : /home/xchen/software/xtb-6.7.1/xtb-dist/bin/xtb /home/xchen/Test/benchmark/md_sampled/04_7_0231_n2/snap_0175.xyz --charge -2 --gfn 2 --norestart
          coordinate file            : /home/xchen/Test/benchmark/md_sampled/04_7_0231_n2/snap_0175.xyz
          omp threads                :                    48


           -------------------------------------------------
          |                 G F N 2 - x T B                 |
           -------------------------------------------------

        Reference                      10.1021/acs.jctc.8b01176
      * Hamiltonian:
        H0-scaling (s, p, d)           1.850000    2.230000    2.230000
        zeta-weighting                 0.500000
      * Dispersion:
        s8                             2.700000
        a1                             0.520000
        a2                             5.000000
        s9                             5.000000
      * Repulsion:
        kExp                           1.500000    1.000000
        rExp                           1.000000
      * Coulomb:
        alpha                          2.000000
        third order                    shell-resolved
        anisotropic                    true
        a3                             3.000000
        a5                             4.000000
        cn-shift                       1.200000
        cn-exp                         4.000000
        max-rad                        5.000000


          ...................................................
          :                      SETUP                      :
          :.................................................:
          :  # basis functions                 297          :
          :  # atomic orbitals                 296          :
          :  # shells                          176          :
          :  # electrons                       328          :
          :  max. iterations                   250          :
          :  Hamiltonian                  GFN2-xTB          :
          :  restarted?                      false          :
          :  GBSA solvation                  false          :
          :  PC potential                    false          :
          :  electronic temp.          300.0000000     K    :
          :  accuracy                    1.0000000          :
          :  -> integral cutoff          0.2500000E+02      :
          :  -> integral neglect         0.1000000E-07      :
          :  -> SCF convergence          0.1000000E-05 Eh   :
          :  -> wf. convergence          0.1000000E-03 e    :
          :  Broyden damping             0.4000000          :
          :  net charge                         -2          :
          :  unpaired electrons                  0          :
          ...................................................

 iter      E             dE          RMSdq      gap      omega  full diag
   1   -187.0003250 -0.187000E+03  0.411E+00    3.73       0.0  T
   2   -187.4974676 -0.497143E+00  0.213E+00    2.29       1.0  T
   3   -187.5261595 -0.286919E-01  0.117E+00    1.18       1.0  T
   4   -186.4942713  0.103189E+01  0.192E+00    0.13       1.0  T
   5   -187.5338146 -0.103954E+01  0.248E-01    0.79       1.0  T
   6   -187.5366704 -0.285578E-02  0.138E-01    0.82       1.0  T
   7   -187.5368677 -0.197310E-03  0.907E-02    0.92       1.0  T
   8   -187.5370057 -0.137937E-03  0.734E-02    0.91       1.0  T
   9   -187.5370747 -0.690656E-04  0.678E-02    0.88       1.0  T
  10   -187.5371214 -0.466770E-04  0.635E-02    0.83       1.0  T
  11   -187.5371655 -0.440711E-04  0.597E-02    0.80       1.0  T
  12   -187.5372173 -0.518720E-04  0.551E-02    0.75       1.0  T
  13   -187.5372492 -0.318296E-04  0.520E-02    0.71       1.0  T
  14   -187.5373800 -0.130857E-03  0.369E-02    0.55       1.0  T
  15   -187.5375361 -0.156095E-03  0.926E-03    0.31       1.0  T
  16   -187.5374932  0.429548E-04  0.156E-02    0.23       1.0  T
  17   -187.5375358 -0.426533E-04  0.923E-03    0.31       1.0  T
  18   -187.5375533 -0.175069E-04  0.145E-03    0.28       6.4  T
  19   -187.5375538 -0.475120E-06  0.505E-05    0.27     183.0  T
  20   -187.5375538  0.340494E-07  0.386E-04    0.27      24.0  T

   *** convergence criteria satisfied after 20 iterations ***

         #    Occupation            Energy/Eh            Energy/eV
      -------------------------------------------------------------
         1        2.0000           -0.5960029             -16.2181
       ...           ...                  ...                  ...
       158        2.0000           -0.2021983              -5.5021
       159        2.0000           -0.1885916              -5.1318
       160        2.0000           -0.1875797              -5.1043
       161        2.0000           -0.1823976              -4.9633
       162        2.0000           -0.1691186              -4.6020
       163        2.0000           -0.1586670              -4.3175
       164        1.9898           -0.1327407              -3.6121 (HOMO)
       165        0.0102           -0.1227253              -3.3395 (LUMO)
       166        0.0000           -0.1148689              -3.1257
       167                         -0.1028861              -2.7997
       168                         -0.0978457              -2.6625
       169                         -0.0918908              -2.5005
       ...                                ...                  ...
       296                          0.9406404              25.5961
      -------------------------------------------------------------
                  HL-Gap            0.0100154 Eh            0.2725 eV
             Fermi-level           -0.1277331 Eh           -3.4758 eV

 SCC (total)                   0 d,  0 h,  0 min,  3.252 sec
 SCC setup                      ...        0 min,  0.007 sec (  0.220%)
 Dispersion                     ...        0 min,  0.030 sec (  0.937%)
 classical contributions        ...        0 min,  0.001 sec (  0.034%)
 integral evaluation            ...        0 min,  0.048 sec (  1.491%)
 iterations                     ...        0 min,  3.018 sec ( 92.788%)
 molecular gradient             ...        0 min,  0.136 sec (  4.184%)
 printout                       ...        0 min,  0.011 sec (  0.342%)

         :::::::::::::::::::::::::::::::::::::::::::::::::::::
         ::                     SUMMARY                     ::
         :::::::::::::::::::::::::::::::::::::::::::::::::::::
         :: total energy            -185.512688142617 Eh    ::
         :: gradient norm              0.394168321305 Eh/a0 ::
         :: HOMO-LUMO gap              0.272533093654 eV    ::
         ::.................................................::
         :: SCC energy              -187.531588783443 Eh    ::
         :: -> isotropic ES            0.712942870577 Eh    ::
         :: -> anisotropic ES          0.017189703053 Eh    ::
         :: -> anisotropic XC          0.057555791720 Eh    ::
         :: -> dispersion             -0.132165514784 Eh    ::
         :: repulsion energy           2.018900640826 Eh    ::
         :: add. restraining           0.000000000000 Eh    ::
         :: total charge              -2.000000000001 e     ::
         :::::::::::::::::::::::::::::::::::::::::::::::::::::

           -------------------------------------------------
          |                Property Printout                |
           -------------------------------------------------

    * Orbital Energies and Occupations

         #    Occupation            Energy/Eh            Energy/eV
      -------------------------------------------------------------
         1        2.0000           -0.5960029             -16.2181
       ...           ...                  ...                  ...
       152        2.0000           -0.2534330              -6.8963
       153        2.0000           -0.2532132              -6.8903
       154        2.0000           -0.2464623              -6.7066
       155        2.0000           -0.2443877              -6.6501
       156        2.0000           -0.2435199              -6.6265
       157        2.0000           -0.2337729              -6.3613
       158        2.0000           -0.2021983              -5.5021
       159        2.0000           -0.1885916              -5.1318
       160        2.0000           -0.1875797              -5.1043
       161        2.0000           -0.1823976              -4.9633
       162        2.0000           -0.1691186              -4.6020
       163        2.0000           -0.1586670              -4.3175
       164        1.9898           -0.1327407              -3.6121 (HOMO)
       165        0.0102           -0.1227253              -3.3395 (LUMO)
       166        0.0000           -0.1148689              -3.1257
       167                         -0.1028861              -2.7997
       168                         -0.0978457              -2.6625
       169                         -0.0918908              -2.5005
       170                         -0.0888106              -2.4167
       171                         -0.0829494              -2.2572
       172                         -0.0747637              -2.0344
       173                         -0.0626607              -1.7051
       174                         -0.0460446              -1.2529
       175                          0.0061024               0.1661
       ...                                ...                  ...
       296                          0.9406404              25.5961
      -------------------------------------------------------------
                  HL-Gap            0.0100154 Eh            0.2725 eV
             Fermi-level           -0.1277331 Eh           -3.4758 eV

     #   Z          covCN         q      C6AA      α(0)
     1   7 N        2.673    -0.251    26.523     7.649
     2   6 C        3.760     0.021    20.265     6.417
     3   6 C        2.763     0.283    22.206     7.717
     4   8 O        0.862    -0.425    22.177     6.314
     5   7 N        2.687    -0.181    24.914     7.413
     6   6 C        3.807     0.016    20.297     6.413
     7   6 C        2.737     0.281    22.239     7.721
     8   6 C        3.780     0.024    20.199     6.403
     9   8 O        0.858    -0.376    21.207     6.174
    10   7 N        2.681    -0.196    25.261     7.465
    11   6 C        3.796    -0.047    21.429     6.592
    12   6 C        2.747     0.275    22.346     7.740
    13   6 C        3.802    -0.093    22.268     6.718
    14   6 C        3.806     0.038    19.930     6.355
    15   8 O        0.858    -0.477    23.285     6.470
    16   6 C        2.682     0.370    20.734     7.452
    17   7 N        2.708    -0.218    25.750     7.537
    18   6 C        3.814    -0.108    22.541     6.758
    19   8 O        0.856    -0.609    26.340     6.881
    20   8 O        0.860    -0.574    25.491     6.769
    21   6 C        2.739     0.251    22.789     7.816
    22   6 C        2.666     0.345    21.145     7.524
    23   6 C        3.764     0.017    20.333     6.427
    24   8 O        0.856    -0.488    23.517     6.502
    25   8 O        0.857    -0.496    23.699     6.527
    26   8 O        0.856    -0.617    26.529     6.906
    27   7 N        2.680    -0.184    24.977     7.423
    28   6 C        3.789    -0.058    21.634     6.624
    29   6 C        2.775     0.271    22.425     7.756
    30   6 C        3.787    -0.063    21.731     6.640
    31   6 C        3.793     0.043    19.865     6.347
    32   8 O        0.858    -0.425    22.194     6.316
    33   6 C        3.754    -0.070    21.905     6.674
    34   7 N        2.715    -0.186    25.032     7.431
    35   6 C        3.812    -0.057    21.597     6.615
    36   6 C        3.709     0.008    20.583     6.484
    37   6 C        2.752     0.278    22.293     7.732
    38   6 C        3.775    -0.019    20.936     6.519
    39   7 N        2.619    -0.329    28.462     7.923
    40   6 C        3.803     0.024    20.169     6.394
    41   8 O        0.864    -0.457    22.846     6.408
    42  16 S        1.922    -0.216   150.262    20.632
    43   7 N        2.688    -0.218    25.766     7.539
    44   6 C        3.862    -0.035    21.163     6.542
    45   6 C        3.746    -0.044    21.429     6.603
    46   6 C        2.744     0.263    22.566     7.778
    47   6 C        3.759    -0.121    22.861     6.817
    48   6 C        3.786    -0.058    21.635     6.625
    49   8 O        0.857    -0.438    22.450     6.353
    50   6 C        3.710    -0.094    22.429     6.768
    51   6 C        3.796    -0.067    21.795     6.648
    52   6 C        3.799    -0.063    21.713     6.635
    53   6 C        3.724     0.019    20.356     6.443
    54   7 N        2.685    -0.239    26.247     7.609
    55   6 C        2.735     0.221    23.344     7.910
    56   7 N        1.774    -0.454    32.900     8.494
    57   7 N        2.641    -0.282    27.280     7.757
    58   6 C        3.714    -0.115    22.834     6.828
    59   1 H        0.862     0.197     1.119     1.657
    60   1 H        0.918     0.048     2.343     2.394
    61   1 H        0.861     0.194     1.138     1.671
    62   1 H        0.926     0.105     1.736     2.060
    63   1 H        0.923     0.075     2.028     2.227
    64   1 H        0.859     0.185     1.184     1.705
    65   1 H        0.928     0.059     2.209     2.324
    66   1 H        0.914     0.036     2.500     2.473
    67   1 H        0.918    -0.002     3.093     2.750
    68   1 H        0.928     0.018     2.763     2.599
    69   1 H        0.927     0.058     2.220     2.330
    70   1 H        0.855     0.250     0.886     1.475
    71   1 H        0.926     0.031     2.568     2.506
    72   1 H        0.922     0.035     2.515     2.480
    73   1 H        0.921     0.062     2.173     2.305
    74   1 H        0.855     0.179     1.219     1.730
    75   1 H        0.927     0.042     2.416     2.431
    76   1 H        0.918     0.028     2.616     2.530
    77   1 H        0.928     0.042     2.416     2.431
    78   1 H        0.924     0.033     2.545     2.495
    79   1 H        0.923     0.032     2.557     2.501
    80   1 H        0.925     0.041     2.442     2.444
    81   1 H        0.915     0.001     3.035     2.725
    82   1 H        0.861     0.189     1.162     1.688
    83   1 H        0.921     0.074     2.045     2.237
    84   1 H        0.926     0.072     2.061     2.245
    85   1 H        0.928     0.032     2.558     2.501
    86   1 H        0.926     0.022     2.701     2.570
    87   1 H        0.924     0.046     2.376     2.411
    88   1 H        0.924     0.052     2.295     2.369
    89   1 H        0.855     0.181     1.208     1.722
    90   1 H        0.858     0.134     1.512     1.927
    91   1 H        0.928     0.083     1.953     2.185
    92   1 H        0.861     0.190     1.156     1.684
    93   1 H        0.927     0.067     2.115     2.274
    94   1 H        0.923     0.060     2.198     2.319
    95   1 H        0.927     0.041     2.431     2.438
    96   1 H        0.925     0.042     2.416     2.431
    97   1 H        0.928     0.045     2.379     2.412
    98   1 H        0.928     0.044     2.395     2.420
    99   1 H        0.927     0.036     2.506     2.475
   100   1 H        0.913     0.026     2.643     2.543
   101   1 H        0.921     0.056     2.244     2.343
   102   1 H        0.922     0.031     2.572     2.508
   103   1 H        0.922     0.032     2.554     2.499
   104   1 H        0.888     0.023     2.701     2.572
   105   1 H        0.926     0.065     2.136     2.285
   106   1 H        0.925     0.065     2.145     2.290
   107   1 H        0.923     0.037     2.495     2.470
   108   1 H        0.928     0.055     2.256     2.349
   109   1 H        0.927     0.058     2.221     2.331
   110   1 H        0.912     0.002     3.035     2.725
   111   1 H        0.861     0.158     1.351     1.820
   112   1 H        0.856     0.111     1.699     2.042
   113   1 H        0.858     0.186     1.179     1.701
   114   1 H        0.861     0.185     1.186     1.706
   115   1 H        0.927     0.082     1.962     2.190
   116   1 H        0.886     0.004     3.005     2.713
   117   1 H        0.929     0.060     2.194     2.316

 Mol. C6AA /au·bohr⁶  :     136535.784596
 Mol. C8AA /au·bohr⁸  :    3094226.076897
 Mol. α(0) /au        :        551.878307


Wiberg/Mayer (AO) data.
largest (>0.10) Wiberg bond orders for each atom

 ---------------------------------------------------------------------------
     #   Z sym  total        # sym  WBO       # sym  WBO       # sym  WBO
 ---------------------------------------------------------------------------
     1   7 N    3.345 --     7 C    1.156     2 C    0.962    59 H    0.928
                             9 O    0.202
     2   6 C    3.963 --    51 C    0.982     1 N    0.962    60 H    0.946
                             3 C    0.941
     3   6 C    3.944 --     4 O    1.706     5 N    1.226     2 C    0.941
     4   8 O    2.029 --     3 C    1.706     5 N    0.188
     5   7 N    3.421 --     3 C    1.226     6 C    0.989    61 H    0.933
                             4 O    0.188
     6   6 C    3.963 --     5 N    0.989    58 C    0.984    46 C    0.949
                            62 H    0.919
     7   6 C    3.936 --     9 O    1.789     1 N    1.156     8 C    0.922
     8   6 C    3.948 --    11 C    1.004    63 H    0.944    10 N    0.929
                             7 C    0.922
     9   8 O    2.106 --     7 C    1.789     1 N    0.202
    10   7 N    3.437 --    12 C    1.296     8 C    0.929    64 H    0.918
                            15 O    0.199
    11   6 C    3.983 --     8 C    1.004    13 C    0.993    65 H    0.970
                            66 H    0.964
    12   6 C    3.952 --    15 O    1.627    10 N    1.296    14 C    0.944
    13   6 C    3.950 --    11 C    0.993    68 H    0.973    67 H    0.967
                            16 C    0.878
    14   6 C    3.963 --    17 N    0.981    18 C    0.965    69 H    0.951
                            12 C    0.944
    15   8 O    1.960 --    12 C    1.627    10 N    0.199
    16   6 C    3.944 --    20 O    1.556    19 O    1.489    13 C    0.878
    17   7 N    3.447 --    21 C    1.325    14 C    0.981    70 H    0.795
                            24 O    0.205
    18   6 C    3.971 --    72 H    0.979    71 H    0.975    14 C    0.965
                            22 C    0.868
    19   8 O    1.821 --    16 C    1.489    20 O    0.229
    20   8 O    1.866 --    16 C    1.556    19 O    0.229
    21   6 C    3.952 --    24 O    1.615    17 N    1.325    23 C    0.916
    22   6 C    3.940 --    25 O    1.661    26 O    1.387    18 C    0.868
    23   6 C    3.950 --    28 C    0.973    27 N    0.967    73 H    0.959
                            21 C    0.916
    24   8 O    1.970 --    21 C    1.615    17 N    0.205
    25   8 O    1.973 --    22 C    1.661    26 O    0.221
    26   8 O    1.858 --    22 C    1.387    25 O    0.221    70 H    0.111
    27   7 N    3.449 --    29 C    1.272    23 C    0.967    74 H    0.923
                            32 O    0.210
    28   6 C    3.988 --    30 C    0.997    75 H    0.977    76 H    0.975
                            23 C    0.973
    29   6 C    3.956 --    32 O    1.687    27 N    1.272    31 C    0.926
    30   6 C    3.988 --    33 C    1.004    28 C    0.997    77 H    0.980
                            78 H    0.980
    31   6 C    3.965 --    35 C    1.004    34 N    0.961    79 H    0.949
                            29 C    0.926
    32   8 O    2.010 --    29 C    1.687    27 N    0.210
    33   6 C    3.986 --    30 C    1.004    81 H    0.983    80 H    0.979
                            36 C    0.949
    34   7 N    3.411 --    37 C    1.240    31 C    0.961    82 H    0.924
                            41 O    0.187
    35   6 C    3.990 --    38 C    1.028    31 C    1.004    84 H    0.966
                            83 H    0.940
    36   6 C    3.982 --    39 N    1.064    85 H    0.979    86 H    0.974
                            33 C    0.949
    37   6 C    3.946 --    41 O    1.649    34 N    1.240    40 C    0.981
    38   6 C    3.974 --    35 C    1.028    88 H    0.975    87 H    0.974
                            42 S    0.950
    39   7 N    3.045 --    36 C    1.064    90 H    0.964    89 H    0.935
    40   6 C    3.967 --    37 C    0.981    43 N    0.960    44 C    0.958
                            91 H    0.947
    41   8 O    1.955 --    37 C    1.649    34 N    0.187
    42  16 S    2.060 --    45 C    1.018    38 C    0.950
    43   7 N    3.403 --    46 C    1.231    40 C    0.960    92 H    0.923
                            49 O    0.192
    44   6 C    3.980 --    48 C    1.001    47 C    0.994    40 C    0.958
                            93 H    0.955
    45   6 C    3.973 --    42 S    1.018    95 H    0.983    96 H    0.983
                            94 H    0.975
    46   6 C    3.949 --    49 O    1.690    43 N    1.231     6 C    0.949
    47   6 C    3.985 --    44 C    0.994    98 H    0.987    99 H    0.985
                            97 H    0.981
    48   6 C    3.994 --    50 C    1.016    44 C    1.001   100 H    0.972
                           101 H    0.971
    49   8 O    2.009 --    46 C    1.690    43 N    0.192
    50   6 C    3.990 --    48 C    1.016   103 H    0.986   102 H    0.985
                           104 H    0.982
    51   6 C    3.986 --    52 C    1.002     2 C    0.982   105 H    0.975
                           106 H    0.971
    52   6 C    3.990 --    51 C    1.002    53 C    1.002   108 H    0.975
                           107 H    0.974
    53   6 C    3.972 --    52 C    1.002    54 N    1.001   110 H    0.959
                           109 H    0.958
    54   7 N    3.273 --    55 C    1.103    53 C    1.001   111 H    0.944
                            56 N    0.128
    55   6 C    3.957 --    56 N    1.635    57 N    1.192    54 N    1.103
    56   7 N    2.897 --    55 C    1.635   112 H    0.947    54 N    0.128
                            57 N    0.119
    57   7 N    3.261 --    55 C    1.192   114 H    0.947   113 H    0.935
                            56 N    0.119
    58   6 C    3.981 --     6 C    0.984   117 H    0.981   115 H    0.976
                           116 H    0.975
    59   1 H    0.961 --     1 N    0.928
    60   1 H    0.998 --     2 C    0.946
    61   1 H    0.962 --     5 N    0.933
    62   1 H    0.989 --     6 C    0.919
    63   1 H    0.994 --     8 C    0.944
    64   1 H    0.965 --    10 N    0.918
    65   1 H    0.996 --    11 C    0.970
    66   1 H    0.998 --    11 C    0.964
    67   1 H    1.000 --    13 C    0.967
    68   1 H    1.000 --    13 C    0.973
    69   1 H    0.996 --    14 C    0.951
    70   1 H    0.938 --    17 N    0.795    26 O    0.111
    71   1 H    0.999 --    18 C    0.975
    72   1 H    0.998 --    18 C    0.979
    73   1 H    0.996 --    23 C    0.959
    74   1 H    0.968 --    27 N    0.923
    75   1 H    0.998 --    28 C    0.977
    76   1 H    0.999 --    28 C    0.975
    77   1 H    0.998 --    30 C    0.980
    78   1 H    0.999 --    30 C    0.980
    79   1 H    0.999 --    31 C    0.949
    80   1 H    0.998 --    33 C    0.979
    81   1 H    1.000 --    33 C    0.983
    82   1 H    0.964 --    34 N    0.924
    83   1 H    0.993 --    35 C    0.940
    84   1 H    0.995 --    35 C    0.966
    85   1 H    0.999 --    36 C    0.979
    86   1 H    0.999 --    36 C    0.974
    87   1 H    0.998 --    38 C    0.974
    88   1 H    0.997 --    38 C    0.975
    89   1 H    0.967 --    39 N    0.935
    90   1 H    0.982 --    39 N    0.964
    91   1 H    0.992 --    40 C    0.947
    92   1 H    0.964 --    43 N    0.923
    93   1 H    0.995 --    44 C    0.955
    94   1 H    0.996 --    45 C    0.975
    95   1 H    0.998 --    45 C    0.983
    96   1 H    0.998 --    45 C    0.983
    97   1 H    0.998 --    47 C    0.981
    98   1 H    0.998 --    47 C    0.987
    99   1 H    0.998 --    47 C    0.985
   100   1 H    0.999 --    48 C    0.972
   101   1 H    0.997 --    48 C    0.971
   102   1 H    0.999 --    50 C    0.985
   103   1 H    0.999 --    50 C    0.986
   104   1 H    0.999 --    50 C    0.982
   105   1 H    0.996 --    51 C    0.975
   106   1 H    0.995 --    51 C    0.971
   107   1 H    0.999 --    52 C    0.974
   108   1 H    0.996 --    52 C    0.975
   109   1 H    0.997 --    53 C    0.958
   110   1 H    1.000 --    53 C    0.959
   111   1 H    0.975 --    54 N    0.944
   112   1 H    0.988 --    56 N    0.947
   113   1 H    0.965 --    57 N    0.935
   114   1 H    0.965 --    57 N    0.947
   115   1 H    0.993 --    58 C    0.976
   116   1 H    1.000 --    58 C    0.975
   117   1 H    0.996 --    58 C    0.981
 ---------------------------------------------------------------------------

Topologies differ in total number of bonds
Writing topology from bond orders to xtbtopo.mol

molecular dipole:
                 x           y           z       tot (Debye)
 q only:        2.276      14.219       0.914
   full:        2.600      14.415       1.263      37.370
molecular quadrupole (traceless):
                xx          xy          yy          xz          yz          zz
 q only:        7.034      10.157    -106.672      47.851     -85.507      99.637
  q+dip:       -1.860      24.550    -106.187      41.202     -94.944     108.047
   full:       -3.088      24.879    -105.165      41.104     -94.362     108.253


           -------------------------------------------------
          | TOTAL ENERGY             -185.512688142617 Eh   |
          | GRADIENT NORM               0.394168321305 Eh/α |
          | HOMO-LUMO GAP               0.272533093654 eV   |
           -------------------------------------------------

------------------------------------------------------------------------
 * finished run on 2026/05/23 at 13:01:31.400     
------------------------------------------------------------------------
 total:
 * wall-time:     0 d,  0 h,  0 min,  3.414 sec
 *  cpu-time:     0 d,  0 h,  0 min, 49.082 sec
 * ratio c/w:    14.375 speedup
 SCF:
 * wall-time:     0 d,  0 h,  0 min,  3.256 sec
 *  cpu-time:     0 d,  0 h,  0 min, 47.563 sec
 * ratio c/w:    14.607 speedup

normal termination of xtb
