      -----------------------------------------------------------      
     |                   =====================                   |     
     |                           x T B                           |     
     |                   =====================                   |     
     |                         S. Grimme                         |     
     |          Mulliken Center for Theoretical Chemistry        |     
     |                    University of Bonn                     |     
      -----------------------------------------------------------      

   * xtb version 6.7.1 (26dd68d) compiled by 'froitzheim@fs7' on 2026-05-14

   xtb is free software: you can redistribute it and/or modify it under
   the terms of the GNU Lesser General Public License as published by
   the Free Software Foundation, either version 3 of the License, or
   (at your option) any later version.
   
   xtb is distributed in the hope that it will be useful,
   but WITHOUT ANY WARRANTY; without even the implied warranty of
   MERCHANTABILITY or FITNESS FOR A PARTICULAR PURPOSE.  See the
   GNU Lesser General Public License for more details.
   
   Cite this work as:
   * C. Bannwarth, E. Caldeweyher, S. Ehlert, A. Hansen, P. Pracht,
     J. Seibert, S. Spicher, S. Grimme, WIREs Comput. Mol. Sci., 2020, 11,
     e01493. DOI: 10.1002/wcms.1493
   
   for g-xTB:
   * T. Froitzheim, M. Müller, A. Hansen, S. Grimme, ChemRxiv, 2025, preprint.
     DOI: 10.26434/chemrxiv-2025-bjxv
   for GFN2-xTB:
   * C. Bannwarth, S. Ehlert and S. Grimme., J. Chem. Theory Comput., 2019,
     15, 1652-1671. DOI: 10.1021/acs.jctc.8b01176
   for GFN1-xTB:
   * S. Grimme, C. Bannwarth, P. Shushkov, J. Chem. Theory Comput., 2017,
     13, 1989-2009. DOI: 10.1021/acs.jctc.7b00118
   for GFN0-xTB:
   * P. Pracht, E. Caldeweyher, S. Ehlert, S. Grimme, ChemRxiv, 2019, preprint.
     DOI: 10.26434/chemrxiv.8326202.v1
   for GFN-FF:
   * S. Spicher and S. Grimme, Angew. Chem. Int. Ed., 2020, 59, 15665-15673.
     DOI: 10.1002/anie.202004239
   
   for ALPB and GBSA implicit solvation:
   * S. Ehlert, M. Stahn, S. Spicher, S. Grimme, J. Chem. Theory Comput.,
     2021, 17, 4250-4261. DOI: 10.1021/acs.jctc.1c00471
   
   for ddCOSMO and CPCM-X implicit solvation:
   * M. Stahn, S. Ehlert, S. Grimme, J. Phys. Chem. A,
     2023, XX, XXXX-XXXX. DOI: 10.1021/acs.jpca.3c04382
   
   for DFT-D4:
   * E. Caldeweyher, C. Bannwarth and S. Grimme, J. Chem. Phys., 2017,
     147, 034112. DOI: 10.1063/1.4993215
   * E. Caldeweyher, S. Ehlert, A. Hansen, H. Neugebauer, S. Spicher,
     C. Bannwarth and S. Grimme, J. Chem. Phys., 2019, 150, 154122.
     DOI: 10.1063/1.5090222
   * E. Caldeweyher, J.-M. Mewes, S. Ehlert and S. Grimme, Phys. Chem. Chem. Phys.
     2020, 22, 8499-8512. DOI: 10.1039/D0CP00502A
   
   for sTDA-xTB:
   * S. Grimme and C. Bannwarth, J. Chem. Phys., 2016, 145, 054103.
     DOI: 10.1063/1.4959605
   
   in the mass-spec context:
   * V. Asgeirsson, C. Bauer and S. Grimme, Chem. Sci., 2017, 8, 4879.
     DOI: 10.1039/c7sc00601b
   * J. Koopman and S. Grimme, ACS Omega 2019, 4, 12, 15120-15133.
     DOI: 10.1021/acsomega.9b02011
   
   for metadynamics refer to:
   * S. Grimme, J. Chem. Theory Comput., 2019, 155, 2847-2862
     DOI: 10.1021/acs.jctc.9b00143
   
   for SPH calculations refer to:
   * S. Spicher and S. Grimme, J. Chem. Theory Comput., 2021, 17, 1701-1714
     DOI: 10.1021/acs.jctc.0c01306
   
   for ONIOM refer to:
   * C. Plett, A. Katbashev, S. Ehlert, S. Grimme, M. Bursch,
     Phys. Chem. Chem. Phys., 2023, 25, 17860-17868. DOI: 10.1039/D3CP02178E
   
   for DIPRO refer to:
   * J. Kohn, N. Gildemeister, S. Grimme, D. Fazzi, A. Hansen,
     J. Chem. Phys. 159, 144106 (2023). DOI: 10.1063/5.0167484
   
   for PTB refer to:
   * S. Grimme, M. Mueller, A. Hansen, J. Chem. Phys., 2023, 158, 124111.
     DOI: 10.1063/5.0137838
   
   with help from (in alphabetical order)
   P. Atkinson, C. Bannwarth, F. Bohle, G. Brandenburg, E. Caldeweyher,
   M. Checinski, S. Dohm, S. Ehlert, S. Ehrlich, M. Friede, T. Froitzheim,
   I. Gerasimov, C. Hölzer, A. Katbashev, J. Kohn, J. Koopman, C. Lavigne,
   S. Lehtola, F. März, M. Müller, F. Musil, H. Neugebauer, J. Pisarek,
   C. Plett, P. Pracht, F. Pultar, J. Seibert, P. Shushkov, S. Spicher,
   M. Stahn, M. Steiner, T. Strunk, J. Stückrath, T. Rose, and J. Unsleber
   
 * started run on 2026/05/23 at 12:26:24.837     
   ID    Z sym.   atoms
    1    7 N      1, 5, 10, 18, 28, 30, 37-39, 41, 47, 48, 56
    2    6 C      2, 3, 6-8, 11-14, 16, 17, 19-25, 27, 29, 31-34, 36, 40,
                  42-45, 49, 51-55
    3    8 O      4, 9, 15, 26, 35, 46, 50
    4    1 H      57-115

           -------------------------------------------------
          |                Calculation Setup                |
           -------------------------------------------------

          program call               : /home/xchen/software/xtb-6.7.1-gxtb/bin/xtb /home/xchen/Test/benchmark/md_sampled/03_6_0978_0/snap_0018.xyz --charge 0 --gxtb --norestart
          coordinate file            : /home/xchen/Test/benchmark/md_sampled/03_6_0978_0/snap_0018.xyz
          omp threads                :                    48

core increment energy         -2.3949795228626E+03 Eh
dispersion energy              2.6580110938187E-02 Eh
molecular charge               0.0000000000000E+00 e
number of electrons            3.0999999999720E+02 e
number of unpaired electrons   0.0000000000000E+00 e
wavefunction                   restricted
integral cutoff                2.6907767250513E+01 bohr
energy convergence             1.0000000000000E-06 Eh
density convergence            2.0000000000000E-05 e

------------------------------------------------------------
  cycle        total energy    energy error   density error
------------------------------------------------------------
      1     -2644.485929983  -2.4953299E+02   0.0000000E+00
      2     -2644.877404710  -3.9147473E-01   1.8101024E-02
      3     -2645.132204661  -2.5479995E-01   1.4500434E-02
      4     -2645.691041465  -5.5883680E-01   1.1638195E-02
      5     -2645.700701924  -9.6604599E-03   8.8645770E-04
      6     -2645.701484066  -7.8214195E-04   1.8855641E-04
      7     -2645.701575703  -9.1636859E-05   6.7362136E-05
      8     -2645.701580771  -5.0674760E-06   1.7522770E-05
      9     -2645.701581541  -7.7054315E-07   3.8680244E-06
------------------------------------------------------------

electronic energy             -2.5074863878962E+02 Eh
total energy                  -2.6457015815413E+03 Eh

Post processing:
 | Mayer-Wiberg bond orders
 | Molecular Multipole Moments

 total:                                  20.778 sec
 - increment                              0.000 sec (  0%)
 - repulsion                              0.013 sec (  0%)
 - dispersion                             0.691 sec (  3%)
 - coulomb                                0.320 sec (  1%)
 - exchange                               0.005 sec (  0%)
 - hamiltonian                            0.436 sec (  2%)
 - acp                                    0.438 sec (  2%)
 - spin polarization                      0.000 sec (  0%)
 - post processing                        0.188 sec (  0%)
 - scc                                   17.205 sec ( 82%)
 - coulomb gradient                       0.265 sec (  1%)
 - dispersion gradient                    0.043 sec (  0%)
 - exchange gradient                      0.142 sec (  0%)
 - repulsion gradient                     0.007 sec (  0%)
 - acp gradient                           0.475 sec (  2%)
 - hamiltonian gradient                   0.731 sec (  3%)
 - gradient                               1.662 sec (  8%)

         :::::::::::::::::::::::::::::::::::::::::::::::::::::
         ::                     SUMMARY                     ::
         :::::::::::::::::::::::::::::::::::::::::::::::::::::
         :: total energy           -2645.701581541280 Eh    ::
         :: gradient norm              0.377743954594 Eh/a0 ::
         :: HOMO-LUMO gap              9.277588131943 eV    ::
         ::.................................................::
         :: add. restraining           0.000000000000 Eh    ::
         :: total charge              -0.000000000000 e     ::
         :::::::::::::::::::::::::::::::::::::::::::::::::::::

           -------------------------------------------------
          |                Property Printout                |
           -------------------------------------------------

    * Orbital Energies and Occupations
------------------------------------------------------------------
      #    Occupation            Energy/Eh            Energy/eV
------------------------------------------------------------------
      1        2.0000           -1.3565186             -36.9128
    ...           ...                  ...                  ...
    143        2.0000           -0.3720400             -10.1237
    144        2.0000           -0.3701219             -10.0715
    145        2.0000           -0.3687598             -10.0345
    146        2.0000           -0.3637034              -9.8969
    147        2.0000           -0.3605144              -9.8101
    148        2.0000           -0.3596523              -9.7866
    149        2.0000           -0.3559452              -9.6858
    150        2.0000           -0.3522444              -9.5851
    151        2.0000           -0.3512384              -9.5577
    152        2.0000           -0.3480825              -9.4718
    153        2.0000           -0.3434132              -9.3447
    154        2.0000           -0.3367971              -9.1647
    155        2.0000           -0.3279128              -8.9230 (HOMO)
    156                          0.0130322               0.3546 (LUMO)
    157                          0.0161954               0.4407
    158                          0.0178174               0.4848
    159                          0.0262134               0.7133
    160                          0.0285028               0.7756
    161                          0.0326777               0.8892
    162                          0.0483940               1.3169
    163                          0.0646806               1.7600
    164                          0.0729988               1.9864
    165                          0.0947531               2.5784
    166                          0.1535613               4.1786
    ...                                ...                  ...
    283                          0.9561020              26.0169
------------------------------------------------------------------
               HL-Gap            0.3409451 Eh            9.2776 eV
------------------------------------------------------------------

Atomic charges and shell populations (in atomic units):
------------------------------------------------------
     #    Z                q          p(s)       p(p)
------------------------------------------------------
     1    7 N      -0.373751      1.409049   3.964702
     2    6 C      -0.017848      1.127406   2.890441
     3    6 C       0.437060      1.090277   2.472663
     4    8 O      -0.508723      1.851812   4.656911
     5    7 N      -0.325022      1.381134   3.943888
     6    6 C      -0.005241      1.127699   2.877542
     7    6 C       0.393374      1.107883   2.498743
     8    6 C      -0.004932      1.118878   2.886053
     9    8 O      -0.447868      1.860233   4.587635
    10    7 N      -0.336099      1.405086   3.931013
    11    6 C      -0.167620      1.145025   3.022595
    12    6 C       0.419247      1.103417   2.477336
    13    6 C      -0.026735      1.107127   2.919607
    14    6 C       0.002335      1.104780   2.892885
    15    8 O      -0.548217      1.858575   4.689641
    16    6 C      -0.126521      1.145334   2.981186
    17    6 C      -0.093360      1.148307   2.945053
    18    7 N      -0.360426      1.375092   3.985334
    19    6 C      -0.169359      1.144664   3.024695
    20    6 C      -0.094412      1.143420   2.950992
    21    6 C      -0.105204      1.152656   2.952549
    22    6 C       0.392147      1.112621   2.495231
    23    6 C      -0.208511      1.143539   3.064972
    24    6 C      -0.096488      1.145286   2.951202
    25    6 C       0.002865      1.124987   2.872148
    26    8 O      -0.499106      1.854994   4.644112
    27    6 C      -0.081930      1.121560   2.960370
    28    7 N      -0.366219      1.455390   3.910829
    29    6 C      -0.167163      1.156405   3.010758
    30    7 N      -0.388807      1.360479   4.028328
    31    6 C       0.441134      1.117186   2.441680
    32    6 C      -0.173022      1.157743   3.015279
    33    6 C       0.297321      1.081181   2.621498
    34    6 C      -0.012374      1.136022   2.876351
    35    8 O      -0.485054      1.856287   4.628768
    36    6 C      -0.073411      1.142634   2.930777
    37    7 N      -0.538958      1.553600   3.985358
    38    7 N      -0.491223      1.401908   4.089314
    39    7 N      -0.259108      1.345582   3.913526
    40    6 C      -0.168461      1.169378   2.999082
    41    7 N      -0.404968      1.418762   3.986206
    42    6 C      -0.050572      1.133044   2.917528
    43    6 C       0.426473      1.110766   2.462761
    44    6 C      -0.188828      1.164129   3.024698
    45    6 C       0.290300      1.082976   2.626724
    46    8 O      -0.526853      1.852228   4.674625
    47    7 N      -0.522168      1.570925   3.951242
    48    7 N      -0.467046      1.389344   4.077702
    49    6 C       0.101064      1.115575   2.783361
    50    8 O      -0.553344      1.811827   4.741517
    51    6 C      -0.247549      1.165470   3.082079
    52    6 C      -0.166985      1.167951   2.999034
    53    6 C      -0.182171      1.145403   3.036768
    54    6 C      -0.184676      1.151394   3.033282
    55    6 C      -0.105427      1.128971   2.976456
    56    7 N      -0.514395      1.453255   4.061140
    57    1 H       0.241784      0.758216
    58    1 H       0.152085      0.847915
    59    1 H       0.271657      0.728343
    60    1 H       0.127517      0.872483
    61    1 H       0.141105      0.858895
    62    1 H       0.286912      0.713088
    63    1 H       0.096865      0.903135
    64    1 H       0.106737      0.893263
    65    1 H       0.152080      0.847920
    66    1 H       0.109170      0.890830
    67    1 H       0.101424      0.898576
    68    1 H       0.253451      0.746549
    69    1 H       0.102160      0.897840
    70    1 H       0.095458      0.904542
    71    1 H       0.112022      0.887978
    72    1 H       0.112473      0.887527
    73    1 H       0.124476      0.875524
    74    1 H       0.109175      0.890825
    75    1 H       0.116199      0.883801
    76    1 H       0.106333      0.893667
    77    1 H       0.117180      0.882820
    78    1 H       0.089041      0.910959
    79    1 H       0.263223      0.736777
    80    1 H       0.077872      0.922128
    81    1 H       0.154343      0.845657
    82    1 H       0.264615      0.735385
    83    1 H       0.125509      0.874491
    84    1 H       0.085599      0.914401
    85    1 H       0.135810      0.864190
    86    1 H       0.093769      0.906231
    87    1 H       0.059311      0.940689
    88    1 H       0.225931      0.774069
    89    1 H       0.240438      0.759562
    90    1 H       0.253706      0.746294
    91    1 H       0.098409      0.901591
    92    1 H       0.118069      0.881931
    93    1 H       0.262958      0.737042
    94    1 H       0.118081      0.881919
    95    1 H       0.082914      0.917086
    96    1 H       0.103897      0.896103
    97    1 H       0.107484      0.892516
    98    1 H       0.228279      0.771721
    99    1 H       0.246973      0.753027
   100    1 H       0.252056      0.747944
   101    1 H       0.087130      0.912870
   102    1 H       0.333502      0.666498
   103    1 H       0.089883      0.910117
   104    1 H       0.112685      0.887315
   105    1 H       0.076854      0.923146
   106    1 H       0.081473      0.918527
   107    1 H       0.122936      0.877064
   108    1 H       0.107371      0.892629
   109    1 H       0.103037      0.896963
   110    1 H       0.100372      0.899628
   111    1 H       0.085024      0.914976
   112    1 H       0.103580      0.896420
   113    1 H       0.086780      0.913220
   114    1 H       0.209347      0.790653
   115    1 H       0.208309      0.791691
------------------------------------------------------


Wiberg/Mayer (AO) data.
largest (>0.10) Wiberg bond orders for each atom

 ---------------------------------------------------------------------------
     #   Z sym  total        # sym  WBO       # sym  WBO       # sym  WBO
 ---------------------------------------------------------------------------
     1   7 N    3.236 --     7 C    1.134     2 C    0.956    57 O    0.901
                             9 C    0.142
     2   6 C    3.921 --    49 C    0.986     1 N    0.956    58 O    0.927
                             3 C    0.902
     3   6 C    3.878 --     4 C    1.695     5 N    1.210     2 C    0.902
     4   8 C    1.969 --     3 C    1.695     5 N    0.153
     5   7 N    3.304 --     3 C    1.210     6 C    0.970    59 O    0.881
                             4 C    0.153
     6   6 C    3.933 --    52 C    0.977     5 N    0.970    60 O    0.939
                            43 C    0.906
     7   6 C    3.882 --     9 C    1.740     1 N    1.134     8 C    0.939
     8   6 C    3.943 --    11 C    0.976    10 N    0.960     7 C    0.939
                            61 O    0.924
     9   8 C    2.015 --     7 C    1.740     1 N    0.142
    10   7 N    3.272 --    12 C    1.212     8 C    0.960    62 O    0.858
                            15 C    0.149
    11   6 C    3.964 --    13 C    0.999     8 C    0.976    63 O    0.956
                            64 O    0.954
    12   6 C    3.873 --    15 C    1.638    10 N    1.212    14 C    0.938
    13   6 C    3.983 --    16 C    1.434    17 C    1.403    11 C    0.999
                            24 C    0.109
    14   6 C    3.928 --    19 C    0.981    18 N    0.960    12 C    0.938
                            65 O    0.926
    15   8 C    1.915 --    12 C    1.638    10 N    0.149
    16   6 C    3.970 --    13 C    1.434    20 C    1.412    66 O    0.944
                            21 C    0.124
    17   6 C    3.968 --    21 C    1.442    13 C    1.403    67 O    0.951
                            20 C    0.122
    18   7 N    3.300 --    22 C    1.183    14 C    0.960    68 O    0.896
                            26 C    0.151
    19   6 C    3.964 --    23 C    1.002    14 C    0.981    70 O    0.959
                            69 O    0.956
    20   6 C    3.968 --    24 C    1.454    16 C    1.412    71 O    0.951
                            17 C    0.122
    21   6 C    3.967 --    17 C    1.442    24 C    1.417    72 O    0.954
                            16 C    0.124
    22   6 C    3.869 --    26 C    1.675    18 N    1.183    25 C    0.938
    23   6 C    3.958 --    27 C    1.005    19 C    1.002    74 O    0.954
                            73 O    0.944
    24   6 C    3.969 --    20 C    1.454    21 C    1.417    75 O    0.953
                            13 C    0.109
    25   6 C    3.948 --    29 C    0.980    28 N    0.953    22 C    0.938
                            76 O    0.927
    26   8 C    1.984 --    22 C    1.675    18 N    0.151
    27   6 C    3.938 --    23 C    1.005    30 N    0.994    77 O    0.951
                            78 O    0.945
    28   7 N    3.165 --    31 C    1.114    25 C    0.953    79 O    0.878
                            35 C    0.119
    29   6 C    3.948 --    32 C    1.005    25 C    0.980    80 O    0.952
                            81 O    0.942
    30   7 N    3.205 --    33 C    1.100    27 C    0.994    82 O    0.898
                            37 N    0.125
    31   6 C    3.843 --    35 C    1.752    28 N    1.114    34 C    0.893
    32   6 C    3.960 --    29 C    1.005    36 C    1.000    84 O    0.959
                            83 O    0.952
    33   6 C    3.941 --    37 N    1.740    30 N    1.100    38 N    1.067
    34   6 C    3.928 --    40 C    0.994    39 N    0.964    85 O    0.926
                            31 C    0.893
    35   8 C    2.014 --    31 C    1.752    28 N    0.119
    36   6 C    3.942 --    32 C    1.000    41 N    0.994    86 O    0.952
                            87 O    0.943
    37   7 N    2.910 --    33 C    1.740    88 O    0.902    30 N    0.125
    38   7 N    3.059 --    33 C    1.067    90 O    0.918    89 O    0.916
    39   7 N    3.370 --    43 C    1.177    34 C    0.964    42 C    0.954
                            46 C    0.153
    40   6 C    3.956 --    34 C    0.994    44 C    0.979    92 O    0.963
                            91 O    0.962
    41   7 N    3.117 --    45 C    1.045    36 C    0.994    93 O    0.894
    42   6 C    3.924 --    44 C    1.013    39 N    0.954    95 O    0.950
                            94 O    0.948
    43   6 C    3.858 --    46 C    1.678    39 N    1.177     6 C    0.906
    44   6 C    3.958 --    42 C    1.013    40 C    0.979    96 O    0.965
                            97 O    0.962
    45   6 C    3.941 --    47 N    1.745    48 N    1.119    41 N    1.045
    46   8 C    1.971 --    43 C    1.678    39 N    0.153
    47   7 N    2.907 --    45 C    1.745    98 O    0.901    48 N    0.122
    48   7 N    3.129 --    45 C    1.119   100 O    0.916    99 O    0.915
                            47 N    0.122
    49   6 C    3.910 --    51 C    1.013     2 C    0.986   101 O    0.942
                            50 C    0.927
    50   8 C    1.874 --    49 C    0.927   102 O    0.873
    51   6 C    3.958 --    49 C    1.013   103 O    0.970   105 O    0.966
                           104 O    0.964
    52   6 C    3.955 --    53 C    1.005     6 C    0.977   106 O    0.958
                           107 O    0.947
    53   6 C    3.964 --    54 C    1.006    52 C    1.005   109 O    0.959
                           108 O    0.951
    54   6 C    3.967 --    53 C    1.006    55 C    1.002   111 O    0.957
                           110 O    0.954
    55   6 C    3.953 --    56 N    1.016    54 C    1.002   113 O    0.959
                           112 O    0.957
    56   7 N    2.942 --    55 C    1.016   115 O    0.941   114 O    0.938
    57   1 O    0.942 --     1 N    0.901
    58   1 O    0.977 --     2 C    0.927
    59   1 O    0.926 --     5 N    0.881
    60   1 O    0.984 --     6 C    0.939
    61   1 O    0.980 --     8 C    0.924
    62   1 O    0.918 --    10 N    0.858
    63   1 O    0.991 --    11 C    0.956
    64   1 O    0.989 --    11 C    0.954
    65   1 O    0.977 --    14 C    0.926
    66   1 O    0.988 --    16 C    0.944
    67   1 O    0.990 --    17 C    0.951
    68   1 O    0.936 --    18 N    0.896
    69   1 O    0.990 --    19 C    0.956
    70   1 O    0.991 --    19 C    0.959
    71   1 O    0.987 --    20 C    0.951
    72   1 O    0.987 --    21 C    0.954
    73   1 O    0.985 --    23 C    0.944
    74   1 O    0.988 --    23 C    0.954
    75   1 O    0.986 --    24 C    0.953
    76   1 O    0.989 --    25 C    0.927
    77   1 O    0.986 --    27 C    0.951
    78   1 O    0.992 --    27 C    0.945
    79   1 O    0.931 --    28 N    0.878
    80   1 O    0.994 --    29 C    0.952
    81   1 O    0.976 --    29 C    0.942
    82   1 O    0.930 --    30 N    0.898
    83   1 O    0.984 --    32 C    0.952
    84   1 O    0.993 --    32 C    0.959
    85   1 O    0.982 --    34 C    0.926
    86   1 O    0.991 --    36 C    0.952
    87   1 O    0.996 --    36 C    0.943
    88   1 O    0.949 --    37 N    0.902
    89   1 O    0.942 --    38 N    0.916
    90   1 O    0.936 --    38 N    0.918
    91   1 O    0.990 --    40 C    0.962
    92   1 O    0.986 --    40 C    0.963
    93   1 O    0.931 --    41 N    0.894
    94   1 O    0.986 --    42 C    0.948
    95   1 O    0.993 --    42 C    0.950
    96   1 O    0.989 --    44 C    0.965
    97   1 O    0.988 --    44 C    0.962
    98   1 O    0.948 --    47 N    0.901
    99   1 O    0.939 --    48 N    0.915
   100   1 O    0.936 --    48 N    0.916
   101   1 O    0.992 --    49 C    0.942
   102   1 O    0.889 --    50 C    0.873
   103   1 O    0.992 --    51 C    0.970
   104   1 O    0.987 --    51 C    0.964
   105   1 O    0.994 --    51 C    0.966
   106   1 O    0.993 --    52 C    0.958
   107   1 O    0.985 --    52 C    0.947
   108   1 O    0.988 --    53 C    0.951
   109   1 O    0.989 --    53 C    0.959
   110   1 O    0.990 --    54 C    0.954
   111   1 O    0.993 --    54 C    0.957
   112   1 O    0.989 --    55 C    0.957
   113   1 O    0.992 --    55 C    0.959
   114   1 O    0.956 --    56 N    0.938
   115   1 O    0.957 --    56 N    0.941
 ---------------------------------------------------------------------------

Topologies differ in total number of bonds
Writing topology from bond orders to xtbtopo.mol

Atomic dipole moments (in atomic units):
---------------------------------------------------------
     #    Z                 x            y            z
---------------------------------------------------------
           total     1.975906    -1.370267    -2.973453
---------------------------------------------------------
         |total|     3.824037     9.719732 Debye


           -------------------------------------------------
          | TOTAL ENERGY            -2645.701581541280 Eh   |
          | GRADIENT NORM               0.377743954594 Eh/α |
           -------------------------------------------------

------------------------------------------------------------------------
 * finished run on 2026/05/23 at 12:26:46.789     
------------------------------------------------------------------------
 total:
 * wall-time:     0 d,  0 h,  0 min, 21.951 sec
 *  cpu-time:     0 d,  0 h,  0 min, 34.475 sec
 * ratio c/w:     1.571 speedup
 SCF:
 * wall-time:     0 d,  0 h,  0 min, 21.473 sec
 *  cpu-time:     0 d,  0 h,  0 min, 34.068 sec
 * ratio c/w:     1.587 speedup

normal termination of xtb
