      -----------------------------------------------------------      
     |                   =====================                   |     
     |                           x T B                           |     
     |                   =====================                   |     
     |                         S. Grimme                         |     
     |          Mulliken Center for Theoretical Chemistry        |     
     |                    University of Bonn                     |     
      -----------------------------------------------------------      

   * xtb version 6.7.1 (edcfbbe) compiled by 'albert@albert-system' on 2024-07-22

   xtb is free software: you can redistribute it and/or modify it under
   the terms of the GNU Lesser General Public License as published by
   the Free Software Foundation, either version 3 of the License, or
   (at your option) any later version.
   
   xtb is distributed in the hope that it will be useful,
   but WITHOUT ANY WARRANTY; without even the implied warranty of
   MERCHANTABILITY or FITNESS FOR A PARTICULAR PURPOSE.  See the
   GNU Lesser General Public License for more details.
   
   Cite this work as:
   * C. Bannwarth, E. Caldeweyher, S. Ehlert, A. Hansen, P. Pracht,
     J. Seibert, S. Spicher, S. Grimme, WIREs Comput. Mol. Sci., 2020, 11,
     e01493. DOI: 10.1002/wcms.1493
   
   for GFN2-xTB:
   * C. Bannwarth, S. Ehlert and S. Grimme., J. Chem. Theory Comput., 2019,
     15, 1652-1671. DOI: 10.1021/acs.jctc.8b01176
   for GFN1-xTB:
   * S. Grimme, C. Bannwarth, P. Shushkov, J. Chem. Theory Comput., 2017,
     13, 1989-2009. DOI: 10.1021/acs.jctc.7b00118
   for GFN0-xTB:
   * P. Pracht, E. Caldeweyher, S. Ehlert, S. Grimme, ChemRxiv, 2019, preprint.
     DOI: 10.26434/chemrxiv.8326202.v1
   for GFN-FF:
   * S. Spicher and S. Grimme, Angew. Chem. Int. Ed., 2020, 59, 15665-15673.
     DOI: 10.1002/anie.202004239
   
   for ALPB and GBSA implicit solvation:
   * S. Ehlert, M. Stahn, S. Spicher, S. Grimme, J. Chem. Theory Comput.,
     2021, 17, 4250-4261. DOI: 10.1021/acs.jctc.1c00471
   
   for ddCOSMO and CPCM-X implicit solvation:
   * M. Stahn, S. Ehlert, S. Grimme, J. Phys. Chem. A,
     2023, XX, XXXX-XXXX. DOI: 10.1021/acs.jpca.3c04382
   
   for DFT-D4:
   * E. Caldeweyher, C. Bannwarth and S. Grimme, J. Chem. Phys., 2017,
     147, 034112. DOI: 10.1063/1.4993215
   * E. Caldeweyher, S. Ehlert, A. Hansen, H. Neugebauer, S. Spicher,
     C. Bannwarth and S. Grimme, J. Chem. Phys., 2019, 150, 154122.
     DOI: 10.1063/1.5090222
   * E. Caldeweyher, J.-M. Mewes, S. Ehlert and S. Grimme, Phys. Chem. Chem. Phys.
     2020, 22, 8499-8512. DOI: 10.1039/D0CP00502A
   
   for sTDA-xTB:
   * S. Grimme and C. Bannwarth, J. Chem. Phys., 2016, 145, 054103.
     DOI: 10.1063/1.4959605
   
   in the mass-spec context:
   * V. Asgeirsson, C. Bauer and S. Grimme, Chem. Sci., 2017, 8, 4879.
     DOI: 10.1039/c7sc00601b
   * J. Koopman and S. Grimme, ACS Omega 2019, 4, 12, 15120-15133.
     DOI: 10.1021/acsomega.9b02011
   
   for metadynamics refer to:
   * S. Grimme, J. Chem. Theory Comput., 2019, 155, 2847-2862
     DOI: 10.1021/acs.jctc.9b00143
   
   for SPH calculations refer to:
   * S. Spicher and S. Grimme, J. Chem. Theory Comput., 2021, 17, 1701-1714
     DOI: 10.1021/acs.jctc.0c01306
   
   for ONIOM refer to:
   * C. Plett, A. Katbashev, S. Ehlert, S. Grimme, M. Bursch,
     Phys. Chem. Chem. Phys., 2023, 25, 17860-17868. DOI: 10.1039/D3CP02178E
   
   for DIPRO refer to:
   * J. Kohn, N. Gildemeister, S. Grimme, D. Fazzi, A. Hansen,
     J. Chem. Phys., 2023, just accepted.
   
   for PTB refer to:
   * S. Grimme, M. Mueller, A. Hansen, J. Chem. Phys., 2023, 158, 124111.
     DOI: 10.1063/5.0137838
   
   with help from (in alphabetical order)
   P. Atkinson, C. Bannwarth, F. Bohle, G. Brandenburg, E. Caldeweyher
   M. Checinski, S. Dohm, S. Ehlert, S. Ehrlich, I. Gerasimov, C. Hölzer
   A. Katbashev, J. Kohn, J. Koopman, C. Lavigne, S. Lehtola, F. März, M. Müller,
   F. Musil, H. Neugebauer, J. Pisarek, C. Plett, P. Pracht, F. Pultar,
   J. Seibert, P. Shushkov, S. Spicher, M. Stahn, M. Steiner, T. Strunk,
   J. Stückrath, T. Rose, and J. Unsleber
   
 * started run on 2026/05/23 at 12:59:38.576     
   ID    Z sym.   atoms
    1    7 N      1, 5, 10, 17, 27, 34, 39, 43, 54, 56, 57
    2    6 C      2, 3, 6-8, 11-14, 16, 18, 21-23, 28-31, 33, 35-38, 40,
                  44-48, 50-53, 55, 58
    3    8 O      4, 9, 15, 19, 20, 24-26, 32, 41, 49
    4   16 S      42
    5    1 H      59-117

           -------------------------------------------------
          |                Calculation Setup                |
           -------------------------------------------------

          program call               : /home/xchen/software/xtb-6.7.1/xtb-dist/bin/xtb /home/xchen/Test/benchmark/md_sampled/04_7_0231_n2/snap_0160.xyz --charge -2 --gfn 2 --norestart
          coordinate file            : /home/xchen/Test/benchmark/md_sampled/04_7_0231_n2/snap_0160.xyz
          omp threads                :                    48


           -------------------------------------------------
          |                 G F N 2 - x T B                 |
           -------------------------------------------------

        Reference                      10.1021/acs.jctc.8b01176
      * Hamiltonian:
        H0-scaling (s, p, d)           1.850000    2.230000    2.230000
        zeta-weighting                 0.500000
      * Dispersion:
        s8                             2.700000
        a1                             0.520000
        a2                             5.000000
        s9                             5.000000
      * Repulsion:
        kExp                           1.500000    1.000000
        rExp                           1.000000
      * Coulomb:
        alpha                          2.000000
        third order                    shell-resolved
        anisotropic                    true
        a3                             3.000000
        a5                             4.000000
        cn-shift                       1.200000
        cn-exp                         4.000000
        max-rad                        5.000000


          ...................................................
          :                      SETUP                      :
          :.................................................:
          :  # basis functions                 297          :
          :  # atomic orbitals                 296          :
          :  # shells                          176          :
          :  # electrons                       328          :
          :  max. iterations                   250          :
          :  Hamiltonian                  GFN2-xTB          :
          :  restarted?                      false          :
          :  GBSA solvation                  false          :
          :  PC potential                    false          :
          :  electronic temp.          300.0000000     K    :
          :  accuracy                    1.0000000          :
          :  -> integral cutoff          0.2500000E+02      :
          :  -> integral neglect         0.1000000E-07      :
          :  -> SCF convergence          0.1000000E-05 Eh   :
          :  -> wf. convergence          0.1000000E-03 e    :
          :  Broyden damping             0.4000000          :
          :  net charge                         -2          :
          :  unpaired electrons                  0          :
          ...................................................

 iter      E             dE          RMSdq      gap      omega  full diag
   1   -187.0310470 -0.187031E+03  0.423E+00    3.72       0.0  T
   2   -187.6004398 -0.569393E+00  0.221E+00    2.12       1.0  T
   3   -187.6329348 -0.324951E-01  0.122E+00    1.07       1.0  T
   4   -186.6256274  0.100731E+01  0.179E+00    0.10       1.0  T
   5   -187.6414192 -0.101579E+01  0.244E-01    0.83       1.0  T
   6   -187.6434766 -0.205738E-02  0.138E-01    0.79       1.0  T
   7   -187.6435518 -0.752386E-04  0.972E-02    0.83       1.0  T
   8   -187.6437404 -0.188577E-03  0.818E-02    0.80       1.0  T
   9   -187.6438202 -0.798013E-04  0.754E-02    0.74       1.0  T
  10   -187.6439069 -0.866739E-04  0.690E-02    0.67       1.0  T
  11   -187.6439821 -0.752634E-04  0.633E-02    0.61       1.0  T
  12   -187.6440904 -0.108232E-03  0.542E-02    0.51       1.0  T
  13   -187.6442905 -0.200126E-03  0.366E-02    0.34       1.0  T
  14   -187.5699572  0.743333E-01  0.482E-01    0.05       1.0  T
  15   -187.6035159 -0.335588E-01  0.357E-01    0.07       1.0  T
  16   -187.6443055 -0.407895E-01  0.351E-02    0.33       1.0  T
  17   -187.6445885 -0.283010E-03  0.775E-03    0.23       1.2  T
  18   -187.6443618  0.226719E-03  0.283E-02    0.18       1.0  T
  19   -187.6445407 -0.178930E-03  0.148E-02    0.20       1.0  T
  20   -187.6444788  0.619265E-04  0.205E-02    0.19       1.0  T
  21   -187.6445266 -0.478714E-04  0.162E-02    0.19       1.0  T
  22   -187.6445380 -0.113757E-04  0.150E-02    0.20       1.0  T
  23   -187.6445573 -0.193363E-04  0.127E-02    0.20       1.0  T
  24   -187.6445789 -0.215574E-04  0.948E-03    0.20       1.0  T
  25   -187.6445925 -0.136475E-04  0.663E-03    0.21       1.4  T
  26   -187.6446023 -0.977139E-05  0.331E-03    0.21       2.8  T
  27   -187.6446052 -0.283337E-05  0.116E-03    0.21       8.0  T
  28   -187.6446055 -0.379462E-06  0.219E-04    0.22      42.3  T
  29   -187.6446055 -0.139255E-07  0.209E-05    0.22     441.7  T

   *** convergence criteria satisfied after 29 iterations ***

         #    Occupation            Energy/Eh            Energy/eV
      -------------------------------------------------------------
         1        2.0000           -0.5947606             -16.1843
       ...           ...                  ...                  ...
       158        2.0000           -0.2132417              -5.8026
       159        2.0000           -0.2060563              -5.6071
       160        2.0000           -0.1911459              -5.2013
       161        2.0000           -0.1869085              -5.0860
       162        2.0000           -0.1661140              -4.5202
       163        2.0000           -0.1516806              -4.1274
       164        1.9692           -0.1279519              -3.4817 (HOMO)
       165        0.0300           -0.1200287              -3.2661 (LUMO)
       166        0.0008           -0.1165934              -3.1727
       167                         -0.1020870              -2.7779
       168                         -0.0860547              -2.3417
       169                         -0.0851662              -2.3175
       ...                                ...                  ...
       296                          0.9501645              25.8553
      -------------------------------------------------------------
                  HL-Gap            0.0079232 Eh            0.2156 eV
             Fermi-level           -0.1240033 Eh           -3.3743 eV

 SCC (total)                   0 d,  0 h,  0 min, 25.296 sec
 SCC setup                      ...        0 min,  0.024 sec (  0.094%)
 Dispersion                     ...        0 min,  0.093 sec (  0.367%)
 classical contributions        ...        0 min,  0.004 sec (  0.015%)
 integral evaluation            ...        0 min,  0.473 sec (  1.869%)
 iterations                     ...        0 min, 24.041 sec ( 95.038%)
 molecular gradient             ...        0 min,  0.649 sec (  2.566%)
 printout                       ...        0 min,  0.013 sec (  0.050%)

         :::::::::::::::::::::::::::::::::::::::::::::::::::::
         ::                     SUMMARY                     ::
         :::::::::::::::::::::::::::::::::::::::::::::::::::::
         :: total energy            -185.542630785130 Eh    ::
         :: gradient norm              0.390835998952 Eh/a0 ::
         :: HOMO-LUMO gap              0.215600886168 eV    ::
         ::.................................................::
         :: SCC energy              -187.638418884608 Eh    ::
         :: -> isotropic ES            0.727490074328 Eh    ::
         :: -> anisotropic ES          0.011524288485 Eh    ::
         :: -> anisotropic XC          0.059734891353 Eh    ::
         :: -> dispersion             -0.135459741328 Eh    ::
         :: repulsion energy           2.095788099478 Eh    ::
         :: add. restraining           0.000000000000 Eh    ::
         :: total charge              -2.000000000000 e     ::
         :::::::::::::::::::::::::::::::::::::::::::::::::::::

           -------------------------------------------------
          |                Property Printout                |
           -------------------------------------------------

    * Orbital Energies and Occupations

         #    Occupation            Energy/Eh            Energy/eV
      -------------------------------------------------------------
         1        2.0000           -0.5947606             -16.1843
       ...           ...                  ...                  ...
       152        2.0000           -0.2504589              -6.8153
       153        2.0000           -0.2501099              -6.8058
       154        2.0000           -0.2451444              -6.6707
       155        2.0000           -0.2422902              -6.5931
       156        2.0000           -0.2409257              -6.5559
       157        2.0000           -0.2329080              -6.3377
       158        2.0000           -0.2132417              -5.8026
       159        2.0000           -0.2060563              -5.6071
       160        2.0000           -0.1911459              -5.2013
       161        2.0000           -0.1869085              -5.0860
       162        2.0000           -0.1661140              -4.5202
       163        2.0000           -0.1516806              -4.1274
       164        1.9692           -0.1279519              -3.4817 (HOMO)
       165        0.0300           -0.1200287              -3.2661 (LUMO)
       166        0.0008           -0.1165934              -3.1727
       167                         -0.1020870              -2.7779
       168                         -0.0860547              -2.3417
       169                         -0.0851662              -2.3175
       170                         -0.0784489              -2.1347
       171                         -0.0724134              -1.9705
       172                         -0.0713834              -1.9424
       173                         -0.0634585              -1.7268
       174                         -0.0293328              -0.7982
       175                         -0.0108931              -0.2964
       ...                                ...                  ...
       296                          0.9501645              25.8553
      -------------------------------------------------------------
                  HL-Gap            0.0079232 Eh            0.2156 eV
             Fermi-level           -0.1240033 Eh           -3.3743 eV

     #   Z          covCN         q      C6AA      α(0)
     1   7 N        2.694    -0.210    25.571     7.510
     2   6 C        3.792     0.023    20.197     6.400
     3   6 C        2.749     0.284    22.190     7.713
     4   8 O        0.858    -0.422    22.134     6.308
     5   7 N        2.692    -0.161    24.481     7.349
     6   6 C        3.786     0.031    20.061     6.380
     7   6 C        2.755     0.277    22.322     7.737
     8   6 C        3.799     0.021    20.225     6.403
     9   8 O        0.859    -0.416    22.008     6.290
    10   7 N        2.694    -0.172    24.728     7.385
    11   6 C        3.799    -0.046    21.392     6.585
    12   6 C        2.741     0.262    22.575     7.780
    13   6 C        3.815    -0.095    22.301     6.721
    14   6 C        3.845     0.041    19.857     6.339
    15   8 O        0.856    -0.489    23.537     6.505
    16   6 C        2.691     0.371    20.711     7.448
    17   7 N        2.691    -0.206    25.470     7.495
    18   6 C        3.800    -0.085    22.119     6.696
    19   8 O        0.858    -0.603    26.185     6.861
    20   8 O        0.857    -0.602    26.176     6.860
    21   6 C        2.828     0.257    22.674     7.803
    22   6 C        2.687     0.360    20.884     7.479
    23   6 C        3.794     0.022    20.205     6.401
    24   8 O        0.859    -0.543    24.762     6.672
    25   8 O        0.857    -0.501    23.800     6.541
    26   8 O        0.858    -0.622    26.663     6.923
    27   7 N        2.714    -0.180    24.906     7.412
    28   6 C        3.809    -0.064    21.712     6.633
    29   6 C        2.804     0.265    22.534     7.777
    30   6 C        3.790    -0.072    21.885     6.662
    31   6 C        3.798     0.028    20.103     6.384
    32   8 O        0.859    -0.454    22.788     6.400
    33   6 C        3.773    -0.070    21.874     6.664
    34   7 N        2.715    -0.159    24.427     7.340
    35   6 C        3.850    -0.077    21.941     6.662
    36   6 C        3.710     0.037    20.079     6.404
    37   6 C        2.737     0.252    22.770     7.813
    38   6 C        3.797    -0.003    20.638     6.469
    39   7 N        2.630    -0.333    28.573     7.939
    40   6 C        3.788     0.015    20.330     6.422
    41   8 O        0.856    -0.481    23.363     6.481
    42  16 S        1.975    -0.209   149.948    20.610
    43   7 N        2.680    -0.195    25.230     7.460
    44   6 C        3.841    -0.034    21.146     6.542
    45   6 C        3.728    -0.048    21.533     6.625
    46   6 C        2.732     0.240    22.977     7.848
    47   6 C        3.750    -0.116    22.781     6.807
    48   6 C        3.791    -0.070    21.856     6.658
    49   8 O        0.857    -0.423    22.153     6.310
    50   6 C        3.741    -0.102    22.536     6.773
    51   6 C        3.810    -0.072    21.860     6.655
    52   6 C        3.810    -0.069    21.817     6.649
    53   6 C        3.743     0.014    20.417     6.446
    54   7 N        2.705    -0.251    26.534     7.650
    55   6 C        2.730     0.225    23.261     7.896
    56   7 N        1.777    -0.435    32.337     8.421
    57   7 N        2.650    -0.319    28.208     7.888
    58   6 C        3.710    -0.110    22.753     6.817
    59   1 H        0.862     0.210     1.056     1.609
    60   1 H        0.929     0.067     2.116     2.275
    61   1 H        0.860     0.189     1.165     1.691
    62   1 H        0.925     0.085     1.923     2.169
    63   1 H        0.927     0.075     2.030     2.228
    64   1 H        0.861     0.188     1.167     1.693
    65   1 H        0.928     0.077     2.013     2.219
    66   1 H        0.911     0.031     2.578     2.511
    67   1 H        0.929     0.034     2.535     2.490
    68   1 H        0.922     0.001     3.048     2.730
    69   1 H        0.926     0.055     2.254     2.348
    70   1 H        0.854     0.264     0.832     1.429
    71   1 H        0.918     0.031     2.569     2.507
    72   1 H        0.918     0.033     2.544     2.494
    73   1 H        0.913     0.057     2.231     2.337
    74   1 H        0.861     0.212     1.049     1.604
    75   1 H        0.928     0.048     2.343     2.394
    76   1 H        0.924     0.033     2.549     2.497
    77   1 H        0.927     0.048     2.341     2.393
    78   1 H        0.924     0.034     2.525     2.485
    79   1 H        0.921     0.041     2.439     2.442
    80   1 H        0.907     0.024     2.673     2.558
    81   1 H        0.925     0.029     2.604     2.524
    82   1 H        0.860     0.185     1.187     1.706
    83   1 H        0.929     0.075     2.035     2.231
    84   1 H        0.928     0.082     1.954     2.186
    85   1 H        0.919     0.037     2.497     2.471
    86   1 H        0.911    -0.005     3.155     2.779
    87   1 H        0.918     0.050     2.319     2.382
    88   1 H        0.928     0.051     2.303     2.373
    89   1 H        0.861     0.178     1.222     1.732
    90   1 H        0.860     0.129     1.554     1.953
    91   1 H        0.923     0.072     2.059     2.244
    92   1 H        0.860     0.181     1.208     1.721
    93   1 H        0.927     0.055     2.258     2.350
    94   1 H        0.912     0.054     2.270     2.357
    95   1 H        0.919     0.039     2.468     2.457
    96   1 H        0.929     0.052     2.295     2.369
    97   1 H        0.924     0.038     2.479     2.462
    98   1 H        0.926     0.046     2.374     2.409
    99   1 H        0.927     0.045     2.378     2.411
   100   1 H        0.920     0.026     2.638     2.540
   101   1 H        0.929     0.049     2.329     2.386
   102   1 H        0.925     0.038     2.472     2.458
   103   1 H        0.919     0.048     2.348     2.397
   104   1 H        0.923     0.039     2.458     2.452
   105   1 H        0.928     0.070     2.084     2.258
   106   1 H        0.925     0.041     2.431     2.438
   107   1 H        0.919     0.040     2.443     2.445
   108   1 H        0.927     0.065     2.143     2.289
   109   1 H        0.928     0.045     2.382     2.414
   110   1 H        0.927     0.042     2.418     2.431
   111   1 H        0.860     0.168     1.288     1.778
   112   1 H        0.861     0.126     1.574     1.965
   113   1 H        0.860     0.162     1.324     1.803
   114   1 H        0.860     0.168     1.282     1.774
   115   1 H        0.921     0.086     1.916     2.165
   116   1 H        0.882     0.008     2.941     2.684
   117   1 H        0.927     0.038     2.482     2.463

 Mol. C6AA /au·bohr⁶  :     136381.046073
 Mol. C8AA /au·bohr⁸  :    3092132.071561
 Mol. α(0) /au        :        551.457117


Wiberg/Mayer (AO) data.
largest (>0.10) Wiberg bond orders for each atom

 ---------------------------------------------------------------------------
     #   Z sym  total        # sym  WBO       # sym  WBO       # sym  WBO
 ---------------------------------------------------------------------------
     1   7 N    3.414 --     7 C    1.213     2 C    1.008    59 H    0.905
                             9 O    0.195
     2   6 C    3.975 --     1 N    1.008    51 C    0.973    60 H    0.948
                             3 C    0.921
     3   6 C    3.944 --     4 O    1.713     5 N    1.223     2 C    0.921
     4   8 O    2.024 --     3 C    1.713     5 N    0.180
     5   7 N    3.427 --     3 C    1.223     6 C    1.018    61 H    0.929
                             4 O    0.180
     6   6 C    3.972 --     5 N    1.018    58 C    0.999    62 H    0.934
                            46 C    0.906
     7   6 C    3.942 --     9 O    1.719     1 N    1.213     8 C    0.920
     8   6 C    3.943 --    11 C    0.991    63 H    0.950    10 N    0.944
                             7 C    0.920
     9   8 O    2.052 --     7 C    1.719     1 N    0.195
    10   7 N    3.471 --    12 C    1.323     8 C    0.944    64 H    0.920
                            15 O    0.188
    11   6 C    3.980 --    13 C    1.001     8 C    0.991    66 H    0.968
                            65 H    0.965
    12   6 C    3.947 --    15 O    1.601    10 N    1.323    14 C    0.927
    13   6 C    3.953 --    11 C    1.001    68 H    0.978    67 H    0.964
                            16 C    0.883
    14   6 C    3.962 --    17 N    0.981    18 C    0.961    69 H    0.956
                            12 C    0.927
    15   8 O    1.939 --    12 C    1.601    10 N    0.188
    16   6 C    3.943 --    20 O    1.517    19 O    1.516    13 C    0.883
    17   7 N    3.453 --    21 C    1.402    14 C    0.981    70 H    0.733
                            24 O    0.188
    18   6 C    3.971 --    72 H    0.968    14 C    0.961    71 H    0.954
                            22 C    0.953
    19   8 O    1.826 --    16 C    1.516    20 O    0.226
    20   8 O    1.812 --    16 C    1.517    19 O    0.226
    21   6 C    3.959 --    24 O    1.530    17 N    1.402    23 C    0.929
    22   6 C    3.946 --    25 O    1.639    26 O    1.328    18 C    0.953
    23   6 C    3.954 --    27 N    0.976    28 C    0.970    73 H    0.951
                            21 C    0.929
    24   8 O    1.891 --    21 C    1.530    17 N    0.188
    25   8 O    1.954 --    22 C    1.639    26 O    0.218
    26   8 O    1.862 --    22 C    1.328    25 O    0.218    70 H    0.159
    27   7 N    3.468 --    29 C    1.307    23 C    0.976    74 H    0.896
                            32 O    0.200
    28   6 C    3.993 --    30 C    0.999    75 H    0.979    76 H    0.976
                            23 C    0.970
    29   6 C    3.960 --    32 O    1.642    27 N    1.307    31 C    0.945
    30   6 C    3.988 --    28 C    0.999    33 C    0.993    78 H    0.982
                            77 H    0.972
    31   6 C    3.958 --    35 C    0.984    34 N    0.956    29 C    0.945
                            79 H    0.931
    32   8 O    1.972 --    29 C    1.642    27 N    0.200
    33   6 C    3.988 --    30 C    0.993    81 H    0.979    80 H    0.976
                            36 C    0.973
    34   7 N    3.483 --    37 C    1.324    31 C    0.956    82 H    0.920
                            41 O    0.192
    35   6 C    3.984 --    38 C    1.019    31 C    0.984    84 H    0.962
                            83 H    0.957
    36   6 C    3.987 --    39 N    1.065    33 C    0.973    85 H    0.968
                            86 H    0.965
    37   6 C    3.930 --    41 O    1.608    34 N    1.324    40 C    0.906
    38   6 C    3.979 --    35 C    1.019    42 S    0.984    88 H    0.973
                            87 H    0.962
    39   7 N    3.048 --    36 C    1.065    90 H    0.965    89 H    0.946
    40   6 C    3.962 --    43 N    0.992    44 C    0.985    91 H    0.941
                            37 C    0.906
    41   8 O    1.923 --    37 C    1.608    34 N    0.192
    42  16 S    2.079 --    45 C    1.009    38 C    0.984
    43   7 N    3.409 --    46 C    1.213    40 C    0.992    92 H    0.928
                            49 O    0.185
    44   6 C    3.985 --    47 C    0.997    40 C    0.985    48 C    0.977
                            93 H    0.970
    45   6 C    3.975 --    42 S    1.009    96 H    0.985    94 H    0.979
                            95 H    0.969
    46   6 C    3.925 --    49 O    1.713    43 N    1.213     6 C    0.906
    47   6 C    3.992 --    44 C    0.997    99 H    0.989    98 H    0.983
                            97 H    0.981
    48   6 C    3.989 --    50 C    1.019   101 H    0.978    44 C    0.977
                           100 H    0.973
    49   8 O    2.015 --    46 C    1.713    43 N    0.185
    50   6 C    3.994 --    48 C    1.019   104 H    0.987   102 H    0.983
                           103 H    0.983
    51   6 C    3.992 --    52 C    1.003   105 H    0.975   106 H    0.974
                             2 C    0.973
    52   6 C    3.990 --    53 C    1.017    51 C    1.003   108 H    0.970
                           107 H    0.969
    53   6 C    3.974 --    52 C    1.017    54 N    0.976   109 H    0.971
                           110 H    0.970
    54   7 N    3.317 --    55 C    1.149    53 C    0.976   111 H    0.939
                            56 N    0.176
    55   6 C    3.960 --    56 N    1.692    54 N    1.149    57 N    1.090
    56   7 N    2.956 --    55 C    1.692   112 H    0.956    54 N    0.176
    57   7 N    3.150 --    55 C    1.090   114 H    0.953   113 H    0.949
    58   6 C    3.987 --     6 C    0.999   117 H    0.984   116 H    0.979
                           115 H    0.974
    59   1 H    0.956 --     1 N    0.905
    60   1 H    0.995 --     2 C    0.948
    61   1 H    0.964 --     5 N    0.929
    62   1 H    0.992 --     6 C    0.934
    63   1 H    0.994 --     8 C    0.950
    64   1 H    0.964 --    10 N    0.920
    65   1 H    0.994 --    11 C    0.965
    66   1 H    0.998 --    11 C    0.968
    67   1 H    0.999 --    13 C    0.964
    68   1 H    1.000 --    13 C    0.978
    69   1 H    0.997 --    14 C    0.956
    70   1 H    0.930 --    17 N    0.733    26 O    0.159
    71   1 H    0.999 --    18 C    0.954
    72   1 H    0.998 --    18 C    0.968
    73   1 H    0.996 --    23 C    0.951
    74   1 H    0.955 --    27 N    0.896
    75   1 H    0.997 --    28 C    0.979
    76   1 H    0.999 --    28 C    0.976
    77   1 H    0.998 --    30 C    0.972
    78   1 H    0.999 --    30 C    0.982
    79   1 H    0.997 --    31 C    0.931
    80   1 H    0.999 --    33 C    0.976
    81   1 H    0.999 --    33 C    0.979
    82   1 H    0.966 --    34 N    0.920
    83   1 H    0.994 --    35 C    0.957
    84   1 H    0.993 --    35 C    0.962
    85   1 H    0.998 --    36 C    0.968
    86   1 H    1.000 --    36 C    0.965
    87   1 H    0.997 --    38 C    0.962
    88   1 H    0.997 --    38 C    0.973
    89   1 H    0.968 --    39 N    0.946
    90   1 H    0.983 --    39 N    0.965
    91   1 H    0.994 --    40 C    0.941
    92   1 H    0.967 --    43 N    0.928
    93   1 H    0.996 --    44 C    0.970
    94   1 H    0.997 --    45 C    0.979
    95   1 H    0.998 --    45 C    0.969
    96   1 H    0.997 --    45 C    0.985
    97   1 H    0.998 --    47 C    0.981
    98   1 H    0.998 --    47 C    0.983
    99   1 H    0.998 --    47 C    0.989
   100   1 H    0.999 --    48 C    0.973
   101   1 H    0.998 --    48 C    0.978
   102   1 H    0.998 --    50 C    0.983
   103   1 H    0.997 --    50 C    0.983
   104   1 H    0.998 --    50 C    0.987
   105   1 H    0.995 --    51 C    0.975
   106   1 H    0.998 --    51 C    0.974
   107   1 H    0.998 --    52 C    0.969
   108   1 H    0.995 --    52 C    0.970
   109   1 H    0.998 --    53 C    0.971
   110   1 H    0.998 --    53 C    0.970
   111   1 H    0.972 --    54 N    0.939
   112   1 H    0.984 --    56 N    0.956
   113   1 H    0.974 --    57 N    0.949
   114   1 H    0.971 --    57 N    0.953
   115   1 H    0.992 --    58 C    0.974
   116   1 H    0.999 --    58 C    0.979
   117   1 H    0.999 --    58 C    0.984
 ---------------------------------------------------------------------------

Topologies differ in total number of bonds
Writing topology from bond orders to xtbtopo.mol

molecular dipole:
                 x           y           z       tot (Debye)
 q only:        1.271      13.837       0.909
   full:        1.472      13.856       1.250      35.560
molecular quadrupole (traceless):
                xx          xy          yy          xz          yz          zz
 q only:        0.826      14.269    -101.593      51.817     -92.442     100.768
  q+dip:       -6.571      23.653    -103.890      47.559     -98.837     110.461
   full:       -7.841      24.130    -103.135      46.869     -99.289     110.975


           -------------------------------------------------
          | TOTAL ENERGY             -185.542630785130 Eh   |
          | GRADIENT NORM               0.390835998952 Eh/α |
          | HOMO-LUMO GAP               0.215600886168 eV   |
           -------------------------------------------------

------------------------------------------------------------------------
 * finished run on 2026/05/23 at 13:00:04.761     
------------------------------------------------------------------------
 total:
 * wall-time:     0 d,  0 h,  0 min, 26.184 sec
 *  cpu-time:     0 d,  0 h,  0 min, 58.179 sec
 * ratio c/w:     2.222 speedup
 SCF:
 * wall-time:     0 d,  0 h,  0 min, 25.298 sec
 *  cpu-time:     0 d,  0 h,  0 min, 56.552 sec
 * ratio c/w:     2.235 speedup

normal termination of xtb
