      -----------------------------------------------------------      
     |                   =====================                   |     
     |                           x T B                           |     
     |                   =====================                   |     
     |                         S. Grimme                         |     
     |          Mulliken Center for Theoretical Chemistry        |     
     |                    University of Bonn                     |     
      -----------------------------------------------------------      

   * xtb version 6.7.1 (edcfbbe) compiled by 'albert@albert-system' on 2024-07-22

   xtb is free software: you can redistribute it and/or modify it under
   the terms of the GNU Lesser General Public License as published by
   the Free Software Foundation, either version 3 of the License, or
   (at your option) any later version.
   
   xtb is distributed in the hope that it will be useful,
   but WITHOUT ANY WARRANTY; without even the implied warranty of
   MERCHANTABILITY or FITNESS FOR A PARTICULAR PURPOSE.  See the
   GNU Lesser General Public License for more details.
   
   Cite this work as:
   * C. Bannwarth, E. Caldeweyher, S. Ehlert, A. Hansen, P. Pracht,
     J. Seibert, S. Spicher, S. Grimme, WIREs Comput. Mol. Sci., 2020, 11,
     e01493. DOI: 10.1002/wcms.1493
   
   for GFN2-xTB:
   * C. Bannwarth, S. Ehlert and S. Grimme., J. Chem. Theory Comput., 2019,
     15, 1652-1671. DOI: 10.1021/acs.jctc.8b01176
   for GFN1-xTB:
   * S. Grimme, C. Bannwarth, P. Shushkov, J. Chem. Theory Comput., 2017,
     13, 1989-2009. DOI: 10.1021/acs.jctc.7b00118
   for GFN0-xTB:
   * P. Pracht, E. Caldeweyher, S. Ehlert, S. Grimme, ChemRxiv, 2019, preprint.
     DOI: 10.26434/chemrxiv.8326202.v1
   for GFN-FF:
   * S. Spicher and S. Grimme, Angew. Chem. Int. Ed., 2020, 59, 15665-15673.
     DOI: 10.1002/anie.202004239
   
   for ALPB and GBSA implicit solvation:
   * S. Ehlert, M. Stahn, S. Spicher, S. Grimme, J. Chem. Theory Comput.,
     2021, 17, 4250-4261. DOI: 10.1021/acs.jctc.1c00471
   
   for ddCOSMO and CPCM-X implicit solvation:
   * M. Stahn, S. Ehlert, S. Grimme, J. Phys. Chem. A,
     2023, XX, XXXX-XXXX. DOI: 10.1021/acs.jpca.3c04382
   
   for DFT-D4:
   * E. Caldeweyher, C. Bannwarth and S. Grimme, J. Chem. Phys., 2017,
     147, 034112. DOI: 10.1063/1.4993215
   * E. Caldeweyher, S. Ehlert, A. Hansen, H. Neugebauer, S. Spicher,
     C. Bannwarth and S. Grimme, J. Chem. Phys., 2019, 150, 154122.
     DOI: 10.1063/1.5090222
   * E. Caldeweyher, J.-M. Mewes, S. Ehlert and S. Grimme, Phys. Chem. Chem. Phys.
     2020, 22, 8499-8512. DOI: 10.1039/D0CP00502A
   
   for sTDA-xTB:
   * S. Grimme and C. Bannwarth, J. Chem. Phys., 2016, 145, 054103.
     DOI: 10.1063/1.4959605
   
   in the mass-spec context:
   * V. Asgeirsson, C. Bauer and S. Grimme, Chem. Sci., 2017, 8, 4879.
     DOI: 10.1039/c7sc00601b
   * J. Koopman and S. Grimme, ACS Omega 2019, 4, 12, 15120-15133.
     DOI: 10.1021/acsomega.9b02011
   
   for metadynamics refer to:
   * S. Grimme, J. Chem. Theory Comput., 2019, 155, 2847-2862
     DOI: 10.1021/acs.jctc.9b00143
   
   for SPH calculations refer to:
   * S. Spicher and S. Grimme, J. Chem. Theory Comput., 2021, 17, 1701-1714
     DOI: 10.1021/acs.jctc.0c01306
   
   for ONIOM refer to:
   * C. Plett, A. Katbashev, S. Ehlert, S. Grimme, M. Bursch,
     Phys. Chem. Chem. Phys., 2023, 25, 17860-17868. DOI: 10.1039/D3CP02178E
   
   for DIPRO refer to:
   * J. Kohn, N. Gildemeister, S. Grimme, D. Fazzi, A. Hansen,
     J. Chem. Phys., 2023, just accepted.
   
   for PTB refer to:
   * S. Grimme, M. Mueller, A. Hansen, J. Chem. Phys., 2023, 158, 124111.
     DOI: 10.1063/5.0137838
   
   with help from (in alphabetical order)
   P. Atkinson, C. Bannwarth, F. Bohle, G. Brandenburg, E. Caldeweyher
   M. Checinski, S. Dohm, S. Ehlert, S. Ehrlich, I. Gerasimov, C. Hölzer
   A. Katbashev, J. Kohn, J. Koopman, C. Lavigne, S. Lehtola, F. März, M. Müller,
   F. Musil, H. Neugebauer, J. Pisarek, C. Plett, P. Pracht, F. Pultar,
   J. Seibert, P. Shushkov, S. Spicher, M. Stahn, M. Steiner, T. Strunk,
   J. Stückrath, T. Rose, and J. Unsleber
   
 * started run on 2026/05/23 at 08:17:09.877     
   ID    Z sym.   atoms
    1    7 N      1, 5, 10, 17, 23, 28, 35
    2    6 C      2, 3, 6-8, 11-14, 16, 20, 21, 24-26, 29, 31-34, 36-40
    3    8 O      4, 9, 15, 18, 19, 22, 27, 30
    4    1 H      41-70

           -------------------------------------------------
          |                Calculation Setup                |
           -------------------------------------------------

          program call               : /home/xchen/software/xtb-6.7.1/xtb-dist/bin/xtb /home/xchen/Test/benchmark/md_sampled/01_6_0109_n1/snap_0142.xyz --charge -1 --gfn 2 --norestart
          coordinate file            : /home/xchen/Test/benchmark/md_sampled/01_6_0109_n1/snap_0142.xyz
          omp threads                :                    48


           -------------------------------------------------
          |                 G F N 2 - x T B                 |
           -------------------------------------------------

        Reference                      10.1021/acs.jctc.8b01176
      * Hamiltonian:
        H0-scaling (s, p, d)           1.850000    2.230000    2.230000
        zeta-weighting                 0.500000
      * Dispersion:
        s8                             2.700000
        a1                             0.520000
        a2                             5.000000
        s9                             5.000000
      * Repulsion:
        kExp                           1.500000    1.000000
        rExp                           1.000000
      * Coulomb:
        alpha                          2.000000
        third order                    shell-resolved
        anisotropic                    true
        a3                             3.000000
        a5                             4.000000
        cn-shift                       1.200000
        cn-exp                         4.000000
        max-rad                        5.000000


          ...................................................
          :                      SETUP                      :
          :.................................................:
          :  # basis functions                 190          :
          :  # atomic orbitals                 190          :
          :  # shells                          110          :
          :  # electrons                       214          :
          :  max. iterations                   250          :
          :  Hamiltonian                  GFN2-xTB          :
          :  restarted?                      false          :
          :  GBSA solvation                  false          :
          :  PC potential                    false          :
          :  electronic temp.          300.0000000     K    :
          :  accuracy                    1.0000000          :
          :  -> integral cutoff          0.2500000E+02      :
          :  -> integral neglect         0.1000000E-07      :
          :  -> SCF convergence          0.1000000E-05 Eh   :
          :  -> wf. convergence          0.1000000E-03 e    :
          :  Broyden damping             0.4000000          :
          :  net charge                         -1          :
          :  unpaired electrons                  0          :
          ...................................................

 iter      E             dE          RMSdq      gap      omega  full diag
   1   -123.0396487 -0.123040E+03  0.448E+00    3.02       0.0  T
   2   -123.4073758 -0.367727E+00  0.243E+00    1.75       1.0  T
   3   -123.4317553 -0.243795E-01  0.139E+00    1.04       1.0  T
   4   -122.6261912  0.805564E+00  0.225E+00    0.08       1.0  T
   5   -123.4347754 -0.808584E+00  0.419E-01    0.77       1.0  T
   6   -123.4455532 -0.107778E-01  0.150E-01    0.55       1.0  T
   7   -123.4458883 -0.335149E-03  0.101E-01    0.68       1.0  T
   8   -123.4460287 -0.140373E-03  0.714E-02    0.66       1.0  T
   9   -123.4460926 -0.638910E-04  0.593E-02    0.64       1.0  T
  10   -123.4461538 -0.612744E-04  0.515E-02    0.61       1.0  T
  11   -123.4461860 -0.321142E-04  0.470E-02    0.58       1.0  T
  12   -123.4462294 -0.434240E-04  0.407E-02    0.54       1.0  T
  13   -123.4462658 -0.363688E-04  0.345E-02    0.51       1.0  T
  14   -123.4463500 -0.842608E-04  0.138E-02    0.39       1.0  T
  15   -123.4463643 -0.142547E-04  0.579E-03    0.31       2.1  T
  16   -123.4463681 -0.384924E-05  0.116E-03    0.33      10.3  T
  17   -123.4463682 -0.120760E-06  0.241E-04    0.33      49.5  T
  18   -123.4463682 -0.146204E-08  0.119E-04    0.33     100.1  T

   *** convergence criteria satisfied after 18 iterations ***

         #    Occupation            Energy/Eh            Energy/eV
      -------------------------------------------------------------
         1        2.0000           -0.6643512             -18.0779
       ...           ...                  ...                  ...
       101        2.0000           -0.3184617              -8.6658
       102        2.0000           -0.3160537              -8.6003
       103        2.0000           -0.3133724              -8.5273
       104        2.0000           -0.3015194              -8.2048
       105        2.0000           -0.2364459              -6.4340
       106        2.0000           -0.2287898              -6.2257
       107        1.9966           -0.2020311              -5.4975 (HOMO)
       108        0.0034           -0.1899103              -5.1677 (LUMO)
       109        0.0000           -0.1827527              -4.9730
       110                         -0.1776991              -4.8354
       111                         -0.1743945              -4.7455
       112                         -0.1577117              -4.2916
       ...                                ...                  ...
       190                          0.8122400              22.1022
      -------------------------------------------------------------
                  HL-Gap            0.0121208 Eh            0.3298 eV
             Fermi-level           -0.1959709 Eh           -5.3326 eV

 SCC (total)                   0 d,  0 h,  0 min, 16.045 sec
 SCC setup                      ...        0 min,  0.049 sec (  0.307%)
 Dispersion                     ...        0 min,  0.102 sec (  0.638%)
 classical contributions        ...        0 min,  0.011 sec (  0.066%)
 integral evaluation            ...        0 min,  0.304 sec (  1.894%)
 iterations                     ...        0 min, 15.114 sec ( 94.196%)
 molecular gradient             ...        0 min,  0.452 sec (  2.818%)
 printout                       ...        0 min,  0.013 sec (  0.079%)

         :::::::::::::::::::::::::::::::::::::::::::::::::::::
         ::                     SUMMARY                     ::
         :::::::::::::::::::::::::::::::::::::::::::::::::::::
         :: total energy            -122.021274087855 Eh    ::
         :: gradient norm              0.326265940128 Eh/a0 ::
         :: HOMO-LUMO gap              0.329824138526 eV    ::
         ::.................................................::
         :: SCC energy              -123.445225032096 Eh    ::
         :: -> isotropic ES            0.394196946039 Eh    ::
         :: -> anisotropic ES          0.017247398267 Eh    ::
         :: -> anisotropic XC          0.034319020800 Eh    ::
         :: -> dispersion             -0.081378834064 Eh    ::
         :: repulsion energy           1.423950944241 Eh    ::
         :: add. restraining           0.000000000000 Eh    ::
         :: total charge              -1.000000000058 e     ::
         :::::::::::::::::::::::::::::::::::::::::::::::::::::

           -------------------------------------------------
          |                Property Printout                |
           -------------------------------------------------

    * Orbital Energies and Occupations

         #    Occupation            Energy/Eh            Energy/eV
      -------------------------------------------------------------
         1        2.0000           -0.6643512             -18.0779
       ...           ...                  ...                  ...
        95        2.0000           -0.3409811              -9.2786
        96        2.0000           -0.3396790              -9.2431
        97        2.0000           -0.3372442              -9.1769
        98        2.0000           -0.3315269              -9.0213
        99        2.0000           -0.3262379              -8.8774
       100        2.0000           -0.3223998              -8.7729
       101        2.0000           -0.3184617              -8.6658
       102        2.0000           -0.3160537              -8.6003
       103        2.0000           -0.3133724              -8.5273
       104        2.0000           -0.3015194              -8.2048
       105        2.0000           -0.2364459              -6.4340
       106        2.0000           -0.2287898              -6.2257
       107        1.9966           -0.2020311              -5.4975 (HOMO)
       108        0.0034           -0.1899103              -5.1677 (LUMO)
       109        0.0000           -0.1827527              -4.9730
       110                         -0.1776991              -4.8354
       111                         -0.1743945              -4.7455
       112                         -0.1577117              -4.2916
       113                         -0.1523499              -4.1457
       114                         -0.1449619              -3.9446
       115                         -0.1372752              -3.7354
       116                         -0.1023418              -2.7849
       117                         -0.0209209              -0.5693
       118                         -0.0178515              -0.4858
       ...                                ...                  ...
       190                          0.8122400              22.1022
      -------------------------------------------------------------
                  HL-Gap            0.0121208 Eh            0.3298 eV
             Fermi-level           -0.1959709 Eh           -5.3326 eV

     #   Z          covCN         q      C6AA      α(0)
     1   7 N        2.674    -0.220    25.803     7.544
     2   6 C        3.714    -0.010    20.874     6.528
     3   6 C        2.762     0.283    22.202     7.716
     4   8 O        0.861    -0.448    22.666     6.383
     5   7 N        2.709    -0.196    25.247     7.463
     6   6 C        3.788     0.027    20.137     6.391
     7   6 C        2.753     0.255    22.714     7.804
     8   6 C        3.789     0.036    19.989     6.368
     9   8 O        0.858    -0.458    22.873     6.412
    10   7 N        2.704    -0.181    24.917     7.414
    11   6 C        3.813    -0.049    21.442     6.591
    12   6 C        2.781     0.271    22.422     7.756
    13   6 C        3.786    -0.116    22.724     6.790
    14   6 C        3.765    -0.018    20.932     6.521
    15   8 O        0.857    -0.414    21.954     6.282
    16   6 C        2.657     0.357    20.935     7.486
    17   7 N        2.716    -0.189    25.101     7.441
    18   8 O        0.856    -0.591    25.889     6.822
    19   8 O        0.856    -0.535    24.573     6.646
    20   6 C        2.760     0.256    22.691     7.801
    21   6 C        3.778     0.020    20.258     6.412
    22   8 O        0.857    -0.419    22.056     6.297
    23   7 N        2.689    -0.198    25.311     7.472
    24   6 C        3.743    -0.124    22.950     6.834
    25   6 C        2.752     0.270    22.446     7.758
    26   6 C        3.765    -0.011    20.810     6.502
    27   8 O        0.859    -0.408    21.840     6.266
    28   7 N        2.686    -0.174    24.761     7.390
    29   6 C        2.760     0.265    22.526     7.772
    30   8 O        0.858    -0.426    22.198     6.317
    31   6 C        3.788    -0.051    21.494     6.603
    32   6 C        2.995    -0.007    28.176     8.707
    33   6 C        3.124    -0.011    28.092     8.679
    34   6 C        3.293    -0.018    26.783     8.302
    35   7 N        2.825    -0.100    23.190     7.152
    36   6 C        3.032     0.043    27.015     8.525
    37   6 C        2.911    -0.045    29.116     8.848
    38   6 C        2.909    -0.058    29.448     8.898
    39   6 C        2.922    -0.051    29.267     8.872
    40   6 C        2.924    -0.022    28.549     8.762
    41   1 H        0.860     0.175     1.245     1.748
    42   1 H        0.922     0.098     1.802     2.099
    43   1 H        0.879     0.064     2.163     2.302
    44   1 H        0.860     0.189     1.165     1.691
    45   1 H        0.918     0.069     2.094     2.263
    46   1 H        0.919     0.061     2.189     2.314
    47   1 H        0.859     0.185     1.187     1.706
    48   1 H        0.921     0.031     2.576     2.510
    49   1 H        0.927     0.077     2.010     2.217
    50   1 H        0.929     0.015     2.807     2.620
    51   1 H        0.927     0.015     2.812     2.622
    52   1 H        0.912     0.074     2.040     2.234
    53   1 H        0.927     0.056     2.242     2.341
    54   1 H        0.860     0.188     1.169     1.694
    55   1 H        0.927     0.079     1.990     2.206
    56   1 H        0.852     0.158     1.350     1.821
    57   1 H        0.911     0.049     2.336     2.391
    58   1 H        0.928     0.085     1.926     2.170
    59   1 H        0.928     0.058     2.221     2.330
    60   1 H        0.923     0.058     2.225     2.333
    61   1 H        0.927     0.099     1.794     2.094
    62   1 H        0.859     0.205     1.080     1.628
    63   1 H        0.906     0.043     2.410     2.429
    64   1 H        0.923     0.070     2.089     2.261
    65   1 H        0.924     0.029     2.600     2.522
    66   1 H        0.860     0.147     1.419     1.866
    67   1 H        0.926     0.032     2.557     2.500
    68   1 H        0.925     0.018     2.760     2.598
    69   1 H        0.928     0.025     2.658     2.549
    70   1 H        0.919     0.008     2.919     2.672

 Mol. C6AA /au·bohr⁶  :      56133.064005
 Mol. C8AA /au·bohr⁸  :    1290078.644074
 Mol. α(0) /au        :        359.262138


Wiberg/Mayer (AO) data.
largest (>0.10) Wiberg bond orders for each atom

 ---------------------------------------------------------------------------
     #   Z sym  total        # sym  WBO       # sym  WBO       # sym  WBO
 ---------------------------------------------------------------------------
     1   7 N    3.363 --     7 C    1.170     2 C    0.971    41 H    0.943
                             9 O    0.166
     2   6 C    3.958 --     3 C    0.989     1 N    0.971    42 H    0.957
                            43 H    0.939
     3   6 C    3.960 --     4 O    1.655     5 N    1.247     2 C    0.989
     4   8 O    1.978 --     3 C    1.655     5 N    0.193
     5   7 N    3.435 --     3 C    1.247     6 C    0.987    44 H    0.913
                             4 O    0.193
     6   6 C    3.960 --     5 N    0.987    31 C    0.969    45 H    0.950
                            29 C    0.915
     7   6 C    3.939 --     9 O    1.663     1 N    1.170     8 C    0.987
     8   6 C    3.962 --     7 C    0.987    10 N    0.967    46 H    0.942
                            11 C    0.940
     9   8 O    1.976 --     7 C    1.663     1 N    0.166
    10   7 N    3.452 --    12 C    1.259     8 C    0.967    47 H    0.926
                            15 O    0.208
    11   6 C    3.976 --    13 C    1.018    48 H    0.974    49 H    0.961
                             8 C    0.940
    12   6 C    3.952 --    15 O    1.698    10 N    1.259    14 C    0.936
    13   6 C    3.951 --    11 C    1.018    51 H    0.981    50 H    0.967
                            16 C    0.803
    14   6 C    3.965 --    17 N    0.992    53 H    0.962    52 H    0.960
                            12 C    0.936
    15   8 O    2.022 --    12 C    1.698    10 N    0.208
    16   6 C    3.940 --    19 O    1.605    18 O    1.504    13 C    0.803
    17   7 N    3.406 --    20 C    1.221    14 C    0.992    54 H    0.921
                            22 O    0.194
    18   8 O    1.833 --    16 C    1.504    19 O    0.233
    19   8 O    1.933 --    16 C    1.605    18 O    0.233
    20   6 C    3.944 --    22 O    1.707    17 N    1.221    21 C    0.930
    21   6 C    3.960 --    23 N    1.001    24 C    0.981    55 H    0.948
                            20 C    0.930
    22   8 O    2.017 --    20 C    1.707    17 N    0.194
    23   7 N    3.389 --    25 C    1.176    21 C    1.001    56 H    0.935
                            27 O    0.188
    24   6 C    3.975 --    57 H    0.983    59 H    0.983    21 C    0.981
                            58 H    0.980
    25   6 C    3.951 --    27 O    1.723    23 N    1.176    26 C    0.973
    26   6 C    3.978 --    28 N    1.009    25 C    0.973    60 H    0.955
                            61 H    0.942
    27   8 O    2.039 --    25 C    1.723    23 N    0.188
    28   7 N    3.420 --    29 C    1.246    26 C    1.009    62 H    0.909
                            30 O    0.188
    29   6 C    3.950 --    30 O    1.701    28 N    1.246     6 C    0.915
    30   8 O    2.012 --    29 C    1.701    28 N    0.188
    31   6 C    3.977 --    32 C    1.025     6 C    0.969    64 H    0.960
                            63 H    0.945
    32   6 C    3.982 --    33 C    1.582    34 C    1.211    31 C    1.025
    33   6 C    3.936 --    32 C    1.582    35 N    1.160    65 H    0.968
    34   6 C    3.985 --    37 C    1.330    36 C    1.248    32 C    1.211
    35   7 N    3.539 --    36 C    1.214    33 C    1.160    66 H    0.947
    36   6 C    3.958 --    38 C    1.284    34 C    1.248    35 N    1.214
    37   6 C    3.989 --    39 C    1.476    34 C    1.330    67 H    0.971
                            38 C    0.126
    38   6 C    3.982 --    40 C    1.512    36 C    1.284    68 H    0.968
                            37 C    0.126
    39   6 C    3.990 --    37 C    1.476    40 C    1.389    69 H    0.974
    40   6 C    3.992 --    38 C    1.512    39 C    1.389    70 H    0.963
    41   1 H    0.969 --     1 N    0.943
    42   1 H    0.990 --     2 C    0.957
    43   1 H    0.995 --     2 C    0.939
    44   1 H    0.964 --     5 N    0.913
    45   1 H    0.995 --     6 C    0.950
    46   1 H    0.996 --     8 C    0.942
    47   1 H    0.966 --    10 N    0.926
    48   1 H    0.999 --    11 C    0.974
    49   1 H    0.993 --    11 C    0.961
    50   1 H    1.000 --    13 C    0.967
    51   1 H    1.000 --    13 C    0.981
    52   1 H    0.994 --    14 C    0.960
    53   1 H    0.997 --    14 C    0.962
    54   1 H    0.965 --    17 N    0.921
    55   1 H    0.994 --    21 C    0.948
    56   1 H    0.975 --    23 N    0.935
    57   1 H    0.997 --    24 C    0.983
    58   1 H    0.992 --    24 C    0.980
    59   1 H    0.997 --    24 C    0.983
    60   1 H    0.996 --    26 C    0.955
    61   1 H    0.990 --    26 C    0.942
    62   1 H    0.958 --    28 N    0.909
    63   1 H    0.998 --    31 C    0.945
    64   1 H    0.995 --    31 C    0.960
    65   1 H    0.998 --    33 C    0.968
    66   1 H    0.977 --    35 N    0.947
    67   1 H    0.998 --    37 C    0.971
    68   1 H    0.999 --    38 C    0.968
    69   1 H    0.999 --    39 C    0.974
    70   1 H    0.999 --    40 C    0.963
 ---------------------------------------------------------------------------

Topologies differ in total number of bonds
Writing topology from bond orders to xtbtopo.mol

molecular dipole:
                 x           y           z       tot (Debye)
 q only:        3.146       9.304       6.150
   full:        3.165       9.237       5.876      28.966
molecular quadrupole (traceless):
                xx          xy          yy          xz          yz          zz
 q only:       49.359     -50.112     -51.015     -28.849    -122.401       1.656
  q+dip:       39.341     -46.933     -45.212     -23.336    -128.963       5.871
   full:       40.571     -48.673     -47.148     -25.121    -127.488       6.577


           -------------------------------------------------
          | TOTAL ENERGY             -122.021274087855 Eh   |
          | GRADIENT NORM               0.326265940128 Eh/α |
          | HOMO-LUMO GAP               0.329824138526 eV   |
           -------------------------------------------------

------------------------------------------------------------------------
 * finished run on 2026/05/23 at 08:17:26.612     
------------------------------------------------------------------------
 total:
 * wall-time:     0 d,  0 h,  0 min, 16.735 sec
 *  cpu-time:     0 d,  0 h,  0 min, 28.361 sec
 * ratio c/w:     1.695 speedup
 SCF:
 * wall-time:     0 d,  0 h,  0 min, 16.046 sec
 *  cpu-time:     0 d,  0 h,  0 min, 27.822 sec
 * ratio c/w:     1.734 speedup

normal termination of xtb
