      -----------------------------------------------------------      
     |                   =====================                   |     
     |                           x T B                           |     
     |                   =====================                   |     
     |                         S. Grimme                         |     
     |          Mulliken Center for Theoretical Chemistry        |     
     |                    University of Bonn                     |     
      -----------------------------------------------------------      

   * xtb version 6.7.1 (edcfbbe) compiled by 'albert@albert-system' on 2024-07-22

   xtb is free software: you can redistribute it and/or modify it under
   the terms of the GNU Lesser General Public License as published by
   the Free Software Foundation, either version 3 of the License, or
   (at your option) any later version.
   
   xtb is distributed in the hope that it will be useful,
   but WITHOUT ANY WARRANTY; without even the implied warranty of
   MERCHANTABILITY or FITNESS FOR A PARTICULAR PURPOSE.  See the
   GNU Lesser General Public License for more details.
   
   Cite this work as:
   * C. Bannwarth, E. Caldeweyher, S. Ehlert, A. Hansen, P. Pracht,
     J. Seibert, S. Spicher, S. Grimme, WIREs Comput. Mol. Sci., 2020, 11,
     e01493. DOI: 10.1002/wcms.1493
   
   for GFN2-xTB:
   * C. Bannwarth, S. Ehlert and S. Grimme., J. Chem. Theory Comput., 2019,
     15, 1652-1671. DOI: 10.1021/acs.jctc.8b01176
   for GFN1-xTB:
   * S. Grimme, C. Bannwarth, P. Shushkov, J. Chem. Theory Comput., 2017,
     13, 1989-2009. DOI: 10.1021/acs.jctc.7b00118
   for GFN0-xTB:
   * P. Pracht, E. Caldeweyher, S. Ehlert, S. Grimme, ChemRxiv, 2019, preprint.
     DOI: 10.26434/chemrxiv.8326202.v1
   for GFN-FF:
   * S. Spicher and S. Grimme, Angew. Chem. Int. Ed., 2020, 59, 15665-15673.
     DOI: 10.1002/anie.202004239
   
   for ALPB and GBSA implicit solvation:
   * S. Ehlert, M. Stahn, S. Spicher, S. Grimme, J. Chem. Theory Comput.,
     2021, 17, 4250-4261. DOI: 10.1021/acs.jctc.1c00471
   
   for ddCOSMO and CPCM-X implicit solvation:
   * M. Stahn, S. Ehlert, S. Grimme, J. Phys. Chem. A,
     2023, XX, XXXX-XXXX. DOI: 10.1021/acs.jpca.3c04382
   
   for DFT-D4:
   * E. Caldeweyher, C. Bannwarth and S. Grimme, J. Chem. Phys., 2017,
     147, 034112. DOI: 10.1063/1.4993215
   * E. Caldeweyher, S. Ehlert, A. Hansen, H. Neugebauer, S. Spicher,
     C. Bannwarth and S. Grimme, J. Chem. Phys., 2019, 150, 154122.
     DOI: 10.1063/1.5090222
   * E. Caldeweyher, J.-M. Mewes, S. Ehlert and S. Grimme, Phys. Chem. Chem. Phys.
     2020, 22, 8499-8512. DOI: 10.1039/D0CP00502A
   
   for sTDA-xTB:
   * S. Grimme and C. Bannwarth, J. Chem. Phys., 2016, 145, 054103.
     DOI: 10.1063/1.4959605
   
   in the mass-spec context:
   * V. Asgeirsson, C. Bauer and S. Grimme, Chem. Sci., 2017, 8, 4879.
     DOI: 10.1039/c7sc00601b
   * J. Koopman and S. Grimme, ACS Omega 2019, 4, 12, 15120-15133.
     DOI: 10.1021/acsomega.9b02011
   
   for metadynamics refer to:
   * S. Grimme, J. Chem. Theory Comput., 2019, 155, 2847-2862
     DOI: 10.1021/acs.jctc.9b00143
   
   for SPH calculations refer to:
   * S. Spicher and S. Grimme, J. Chem. Theory Comput., 2021, 17, 1701-1714
     DOI: 10.1021/acs.jctc.0c01306
   
   for ONIOM refer to:
   * C. Plett, A. Katbashev, S. Ehlert, S. Grimme, M. Bursch,
     Phys. Chem. Chem. Phys., 2023, 25, 17860-17868. DOI: 10.1039/D3CP02178E
   
   for DIPRO refer to:
   * J. Kohn, N. Gildemeister, S. Grimme, D. Fazzi, A. Hansen,
     J. Chem. Phys., 2023, just accepted.
   
   for PTB refer to:
   * S. Grimme, M. Mueller, A. Hansen, J. Chem. Phys., 2023, 158, 124111.
     DOI: 10.1063/5.0137838
   
   with help from (in alphabetical order)
   P. Atkinson, C. Bannwarth, F. Bohle, G. Brandenburg, E. Caldeweyher
   M. Checinski, S. Dohm, S. Ehlert, S. Ehrlich, I. Gerasimov, C. Hölzer
   A. Katbashev, J. Kohn, J. Koopman, C. Lavigne, S. Lehtola, F. März, M. Müller,
   F. Musil, H. Neugebauer, J. Pisarek, C. Plett, P. Pracht, F. Pultar,
   J. Seibert, P. Shushkov, S. Spicher, M. Stahn, M. Steiner, T. Strunk,
   J. Stückrath, T. Rose, and J. Unsleber
   
 * started run on 2026/05/23 at 12:25:32.079     
   ID    Z sym.   atoms
    1    7 N      1, 5, 10, 17, 27, 34, 39, 43, 54, 56, 57
    2    6 C      2, 3, 6-8, 11-14, 16, 18, 21-23, 28-31, 33, 35-38, 40,
                  44-48, 50-53, 55, 58
    3    8 O      4, 9, 15, 19, 20, 24-26, 32, 41, 49
    4   16 S      42
    5    1 H      59-117

           -------------------------------------------------
          |                Calculation Setup                |
           -------------------------------------------------

          program call               : /home/xchen/software/xtb-6.7.1/xtb-dist/bin/xtb /home/xchen/Test/benchmark/md_sampled/04_7_0231_n2/snap_0010.xyz --charge -2 --gfn 2 --norestart
          coordinate file            : /home/xchen/Test/benchmark/md_sampled/04_7_0231_n2/snap_0010.xyz
          omp threads                :                    48


           -------------------------------------------------
          |                 G F N 2 - x T B                 |
           -------------------------------------------------

        Reference                      10.1021/acs.jctc.8b01176
      * Hamiltonian:
        H0-scaling (s, p, d)           1.850000    2.230000    2.230000
        zeta-weighting                 0.500000
      * Dispersion:
        s8                             2.700000
        a1                             0.520000
        a2                             5.000000
        s9                             5.000000
      * Repulsion:
        kExp                           1.500000    1.000000
        rExp                           1.000000
      * Coulomb:
        alpha                          2.000000
        third order                    shell-resolved
        anisotropic                    true
        a3                             3.000000
        a5                             4.000000
        cn-shift                       1.200000
        cn-exp                         4.000000
        max-rad                        5.000000


          ...................................................
          :                      SETUP                      :
          :.................................................:
          :  # basis functions                 297          :
          :  # atomic orbitals                 296          :
          :  # shells                          176          :
          :  # electrons                       328          :
          :  max. iterations                   250          :
          :  Hamiltonian                  GFN2-xTB          :
          :  restarted?                      false          :
          :  GBSA solvation                  false          :
          :  PC potential                    false          :
          :  electronic temp.          300.0000000     K    :
          :  accuracy                    1.0000000          :
          :  -> integral cutoff          0.2500000E+02      :
          :  -> integral neglect         0.1000000E-07      :
          :  -> SCF convergence          0.1000000E-05 Eh   :
          :  -> wf. convergence          0.1000000E-03 e    :
          :  Broyden damping             0.4000000          :
          :  net charge                         -2          :
          :  unpaired electrons                  0          :
          ...................................................

 iter      E             dE          RMSdq      gap      omega  full diag
   1   -187.1663017 -0.187166E+03  0.420E+00    3.50       0.0  T
   2   -187.6246135 -0.458312E+00  0.213E+00    2.49       1.0  T
   3   -187.6461734 -0.215599E-01  0.116E+00    1.15       1.0  T
   4   -186.3735248  0.127265E+01  0.243E+00    0.18       1.0  T
   5   -187.6553433 -0.128182E+01  0.296E-01    0.72       1.0  T
   6   -187.6599402 -0.459685E-02  0.146E-01    0.66       1.0  T
   7   -187.6599588 -0.185877E-04  0.990E-02    0.74       1.0  T
   8   -187.6600810 -0.122195E-03  0.840E-02    0.73       1.0  T
   9   -187.6601497 -0.687553E-04  0.784E-02    0.69       1.0  T
  10   -187.6602020 -0.523150E-04  0.737E-02    0.65       1.0  T
  11   -187.6602546 -0.525695E-04  0.693E-02    0.61       1.0  T
  12   -187.6603182 -0.635612E-04  0.634E-02    0.56       1.0  T
  13   -187.6603908 -0.725913E-04  0.562E-02    0.50       1.0  T
  14   -187.6607601 -0.369386E-03  0.155E-02    0.26       1.0  T
  15   -187.6607725 -0.123553E-04  0.115E-02    0.21       1.0  T
  16   -187.6607353  0.372198E-04  0.187E-02    0.27       1.0  T
  17   -187.6606064  0.128925E-03  0.295E-02    0.19       1.0  T
  18   -187.6608022 -0.195874E-03  0.277E-03    0.23       3.3  T
  19   -187.6608027 -0.434949E-06  0.227E-03    0.23       4.1  T
  20   -187.6608037 -0.100305E-05  0.554E-04    0.23      16.7  T
  21   -187.6608037 -0.266426E-07  0.452E-04    0.23      20.5  T
  22   -187.6608037 -0.302748E-07  0.256E-04    0.23      36.1  T

   *** convergence criteria satisfied after 22 iterations ***

         #    Occupation            Energy/Eh            Energy/eV
      -------------------------------------------------------------
         1        2.0000           -0.6126858             -16.6720
       ...           ...                  ...                  ...
       158        2.0000           -0.2190932              -5.9618
       159        2.0000           -0.1690339              -4.5996
       160        2.0000           -0.1571954              -4.2775
       161        2.0000           -0.1536711              -4.1816
       162        2.0000           -0.1505689              -4.0972
       163        2.0000           -0.1453875              -3.9562
       164        1.9762           -0.1287226              -3.5027 (HOMO)
       165        0.0237           -0.1203222              -3.2741 (LUMO)
       166        0.0001           -0.1145436              -3.1169
       167                         -0.0974412              -2.6515
       168                         -0.0868321              -2.3628
       169                         -0.0830111              -2.2588
       ...                                ...                  ...
       296                          0.9178010              24.9746
      -------------------------------------------------------------
                  HL-Gap            0.0084004 Eh            0.2286 eV
             Fermi-level           -0.1245235 Eh           -3.3885 eV

 SCC (total)                   0 d,  0 h,  0 min, 32.440 sec
 SCC setup                      ...        0 min,  0.041 sec (  0.125%)
 Dispersion                     ...        0 min,  0.189 sec (  0.583%)
 classical contributions        ...        0 min,  0.006 sec (  0.018%)
 integral evaluation            ...        0 min,  0.342 sec (  1.055%)
 iterations                     ...        0 min, 30.159 sec ( 92.969%)
 molecular gradient             ...        0 min,  1.658 sec (  5.110%)
 printout                       ...        0 min,  0.045 sec (  0.139%)

         :::::::::::::::::::::::::::::::::::::::::::::::::::::
         ::                     SUMMARY                     ::
         :::::::::::::::::::::::::::::::::::::::::::::::::::::
         :: total energy            -185.514279926549 Eh    ::
         :: gradient norm              0.459232906958 Eh/a0 ::
         :: HOMO-LUMO gap              0.228587023063 eV    ::
         ::.................................................::
         :: SCC energy              -187.654759456137 Eh    ::
         :: -> isotropic ES            0.736773096970 Eh    ::
         :: -> anisotropic ES          0.019680966855 Eh    ::
         :: -> anisotropic XC          0.060924960691 Eh    ::
         :: -> dispersion             -0.138374797062 Eh    ::
         :: repulsion energy           2.140479529588 Eh    ::
         :: add. restraining           0.000000000000 Eh    ::
         :: total charge              -2.000000000026 e     ::
         :::::::::::::::::::::::::::::::::::::::::::::::::::::

           -------------------------------------------------
          |                Property Printout                |
           -------------------------------------------------

    * Orbital Energies and Occupations

         #    Occupation            Energy/Eh            Energy/eV
      -------------------------------------------------------------
         1        2.0000           -0.6126858             -16.6720
       ...           ...                  ...                  ...
       152        2.0000           -0.2517831              -6.8514
       153        2.0000           -0.2451435              -6.6707
       154        2.0000           -0.2414094              -6.5691
       155        2.0000           -0.2353761              -6.4049
       156        2.0000           -0.2306285              -6.2757
       157        2.0000           -0.2251455              -6.1265
       158        2.0000           -0.2190932              -5.9618
       159        2.0000           -0.1690339              -4.5996
       160        2.0000           -0.1571954              -4.2775
       161        2.0000           -0.1536711              -4.1816
       162        2.0000           -0.1505689              -4.0972
       163        2.0000           -0.1453875              -3.9562
       164        1.9762           -0.1287226              -3.5027 (HOMO)
       165        0.0237           -0.1203222              -3.2741 (LUMO)
       166        0.0001           -0.1145436              -3.1169
       167                         -0.0974412              -2.6515
       168                         -0.0868321              -2.3628
       169                         -0.0830111              -2.2588
       170                         -0.0797231              -2.1694
       171                         -0.0788499              -2.1456
       172                         -0.0650029              -1.7688
       173                         -0.0517058              -1.4070
       174                         -0.0275339              -0.7492
       175                          0.0103544               0.2818
       ...                                ...                  ...
       296                          0.9178010              24.9746
      -------------------------------------------------------------
                  HL-Gap            0.0084004 Eh            0.2286 eV
             Fermi-level           -0.1245235 Eh           -3.3885 eV

     #   Z          covCN         q      C6AA      α(0)
     1   7 N        2.703    -0.190    25.118     7.443
     2   6 C        3.814     0.031    20.037     6.371
     3   6 C        2.761     0.287    22.136     7.705
     4   8 O        0.862    -0.418    22.042     6.295
     5   7 N        2.703    -0.187    25.062     7.435
     6   6 C        3.798     0.013    20.356     6.424
     7   6 C        2.766     0.293    22.038     7.688
     8   6 C        3.791     0.028    20.106     6.386
     9   8 O        0.865    -0.450    22.700     6.388
    10   7 N        2.685    -0.231    26.055     7.581
    11   6 C        3.771    -0.048    21.461     6.601
    12   6 C        2.765     0.278    22.296     7.733
    13   6 C        3.807    -0.069    21.814     6.649
    14   6 C        3.797     0.051    19.720     6.323
    15   8 O        0.863    -0.410    21.884     6.272
    16   6 C        2.690     0.342    21.197     7.535
    17   7 N        2.689    -0.183    24.965     7.421
    18   6 C        3.824    -0.088    22.159     6.699
    19   8 O        0.853    -0.651    27.407     7.019
    20   8 O        0.858    -0.562    25.202     6.731
    21   6 C        2.760     0.265    22.536     7.774
    22   6 C        2.683     0.329    21.404     7.571
    23   6 C        3.788     0.021    20.231     6.406
    24   8 O        0.859    -0.456    22.826     6.406
    25   8 O        0.855    -0.591    25.900     6.823
    26   8 O        0.855    -0.601    26.148     6.856
    27   7 N        2.701    -0.180    24.905     7.412
    28   6 C        3.804    -0.074    21.907     6.663
    29   6 C        2.748     0.281    22.239     7.722
    30   6 C        3.806    -0.049    21.451     6.593
    31   6 C        3.793     0.027    20.131     6.389
    32   8 O        0.858    -0.409    21.860     6.269
    33   6 C        3.800    -0.064    21.724     6.636
    34   7 N        2.680    -0.230    26.030     7.577
    35   6 C        3.808    -0.068    21.788     6.645
    36   6 C        3.719     0.026    20.245     6.427
    37   6 C        2.741     0.277    22.317     7.735
    38   6 C        3.794    -0.007    20.716     6.481
    39   7 N        2.627    -0.345    28.892     7.983
    40   6 C        3.796     0.017    20.293     6.414
    41   8 O        0.859    -0.396    21.595     6.231
    42  16 S        1.952    -0.215   150.229    20.629
    43   7 N        2.698    -0.214    25.658     7.523
    44   6 C        3.855    -0.025    20.991     6.516
    45   6 C        3.730    -0.053    21.627     6.638
    46   6 C        2.777     0.274    22.369     7.746
    47   6 C        3.762    -0.112    22.694     6.791
    48   6 C        3.800    -0.069    21.830     6.652
    49   8 O        0.859    -0.418    22.042     6.295
    50   6 C        3.741    -0.104    22.562     6.777
    51   6 C        3.808    -0.059    21.639     6.622
    52   6 C        3.800    -0.057    21.593     6.616
    53   6 C        3.732     0.011    20.481     6.460
    54   7 N        2.668    -0.281    27.264     7.755
    55   6 C        2.732     0.251    22.783     7.815
    56   7 N        1.789    -0.408    31.545     8.319
    57   7 N        2.651    -0.323    28.322     7.904
    58   6 C        3.737    -0.122    22.933     6.834
    59   1 H        0.862     0.190     1.156     1.684
    60   1 H        0.925     0.054     2.275     2.359
    61   1 H        0.859     0.191     1.152     1.681
    62   1 H        0.926     0.088     1.903     2.157
    63   1 H        0.924     0.051     2.311     2.377
    64   1 H        0.861     0.175     1.245     1.748
    65   1 H        0.928     0.054     2.275     2.359
    66   1 H        0.884     0.021     2.732     2.587
    67   1 H        0.925     0.020     2.738     2.588
    68   1 H        0.925     0.005     2.978     2.699
    69   1 H        0.924     0.077     2.010     2.217
    70   1 H        0.857     0.191     1.154     1.683
    71   1 H        0.925     0.039     2.461     2.453
    72   1 H        0.928     0.051     2.308     2.376
    73   1 H        0.923     0.063     2.168     2.303
    74   1 H        0.861     0.193     1.140     1.672
    75   1 H        0.925     0.043     2.408     2.426
    76   1 H        0.927     0.073     2.057     2.243
    77   1 H        0.925     0.049     2.333     2.388
    78   1 H        0.925     0.028     2.617     2.530
    79   1 H        0.927     0.050     2.313     2.378
    80   1 H        0.927     0.057     2.237     2.339
    81   1 H        0.927     0.024     2.670     2.555
    82   1 H        0.858     0.154     1.377     1.838
    83   1 H        0.929     0.067     2.115     2.274
    84   1 H        0.923     0.055     2.253     2.347
    85   1 H        0.921    -0.010     3.247     2.818
    86   1 H        0.924     0.023     2.683     2.562
    87   1 H        0.927     0.045     2.387     2.416
    88   1 H        0.929     0.050     2.317     2.380
    89   1 H        0.861     0.170     1.271     1.766
    90   1 H        0.857     0.130     1.544     1.947
    91   1 H        0.917     0.080     1.982     2.202
    92   1 H        0.861     0.186     1.179     1.701
    93   1 H        0.926     0.050     2.321     2.382
    94   1 H        0.925     0.076     2.023     2.224
    95   1 H        0.910     0.032     2.568     2.507
    96   1 H        0.929     0.052     2.300     2.371
    97   1 H        0.925     0.036     2.497     2.471
    98   1 H        0.927     0.044     2.398     2.421
    99   1 H        0.924     0.038     2.479     2.462
   100   1 H        0.923     0.038     2.480     2.463
   101   1 H        0.925     0.046     2.368     2.406
   102   1 H        0.926     0.027     2.625     2.534
   103   1 H        0.921     0.036     2.508     2.477
   104   1 H        0.919     0.045     2.385     2.415
   105   1 H        0.922     0.054     2.276     2.360
   106   1 H        0.919     0.049     2.336     2.390
   107   1 H        0.919     0.050     2.324     2.384
   108   1 H        0.919     0.049     2.338     2.391
   109   1 H        0.926     0.033     2.538     2.491
   110   1 H        0.927     0.031     2.570     2.507
   111   1 H        0.848     0.160     1.339     1.814
   112   1 H        0.860     0.142     1.454     1.889
   113   1 H        0.860     0.167     1.291     1.780
   114   1 H        0.861     0.168     1.284     1.775
   115   1 H        0.923     0.088     1.899     2.155
   116   1 H        0.926     0.039     2.460     2.453
   117   1 H        0.923     0.032     2.560     2.502

 Mol. C6AA /au·bohr⁶  :     136458.623982
 Mol. C8AA /au·bohr⁸  :    3091609.891431
 Mol. α(0) /au        :        551.681336


Wiberg/Mayer (AO) data.
largest (>0.10) Wiberg bond orders for each atom

 ---------------------------------------------------------------------------
     #   Z sym  total        # sym  WBO       # sym  WBO       # sym  WBO
 ---------------------------------------------------------------------------
     1   7 N    3.415 --     7 C    1.246     2 C    0.977    59 H    0.931
                             9 O    0.182
     2   6 C    3.977 --    51 C    0.988     1 N    0.977    60 H    0.947
                             3 C    0.940
     3   6 C    3.948 --     4 O    1.714     5 N    1.213     2 C    0.940
     4   8 O    2.024 --     3 C    1.714     5 N    0.186
     5   7 N    3.405 --     3 C    1.213     6 C    1.003    61 H    0.926
                             4 O    0.186
     6   6 C    3.973 --     5 N    1.003    46 C    0.968    58 C    0.952
                            62 H    0.943
     7   6 C    3.937 --     9 O    1.675     1 N    1.246     8 C    0.932
     8   6 C    3.969 --    10 N    0.988    11 C    0.970    63 H    0.962
                             7 C    0.932
     9   8 O    1.998 --     7 C    1.675     1 N    0.182
    10   7 N    3.331 --    12 C    1.104     8 C    0.988    64 H    0.940
                            15 O    0.179
    11   6 C    3.985 --    13 C    0.997    65 H    0.972     8 C    0.970
                            66 H    0.969
    12   6 C    3.941 --    15 O    1.749    10 N    1.104    14 C    0.979
    13   6 C    3.976 --    11 C    0.997    68 H    0.973    67 H    0.973
                            16 C    0.943
    14   6 C    3.961 --    17 N    0.981    12 C    0.979    18 C    0.948
                            69 H    0.938
    15   8 O    2.044 --    12 C    1.749    10 N    0.179
    16   6 C    3.947 --    20 O    1.571    19 O    1.415    13 C    0.943
    17   7 N    3.453 --    21 C    1.255    14 C    0.981    70 H    0.928
                            24 O    0.204
    18   6 C    3.964 --    71 H    0.975    72 H    0.967    14 C    0.948
                            22 C    0.919
    19   8 O    1.710 --    16 C    1.415    20 O    0.236
    20   8 O    1.871 --    16 C    1.571    19 O    0.236
    21   6 C    3.955 --    24 O    1.660    17 N    1.255    23 C    0.966
    22   6 C    3.949 --    25 O    1.511    26 O    1.496    18 C    0.919
    23   6 C    3.960 --    27 N    0.971    21 C    0.966    28 C    0.952
                            73 H    0.951
    24   8 O    1.992 --    21 C    1.660    17 N    0.204
    25   8 O    1.824 --    22 C    1.511    26 O    0.241
    26   8 O    1.808 --    22 C    1.496    25 O    0.241
    27   7 N    3.464 --    29 C    1.277    23 C    0.971    74 H    0.923
                            32 O    0.213
    28   6 C    3.985 --    30 C    0.994    75 H    0.973    76 H    0.969
                            23 C    0.952
    29   6 C    3.957 --    32 O    1.708    27 N    1.277    31 C    0.913
    30   6 C    3.994 --    33 C    1.035    28 C    0.994    78 H    0.969
                            77 H    0.963
    31   6 C    3.958 --    35 C    0.994    79 H    0.959    34 N    0.952
                            29 C    0.913
    32   8 O    2.046 --    29 C    1.708    27 N    0.213
    33   6 C    3.993 --    30 C    1.035    36 C    0.976    81 H    0.975
                            80 H    0.970
    34   7 N    3.356 --    37 C    1.179    31 C    0.952    82 H    0.928
                            41 O    0.196
    35   6 C    3.991 --    31 C    0.994    38 C    0.988    84 H    0.975
                            83 H    0.970
    36   6 C    3.988 --    39 N    1.036    86 H    0.977    33 C    0.976
                            85 H    0.971
    37   6 C    3.936 --    41 O    1.760    34 N    1.179    40 C    0.919
    38   6 C    3.982 --    42 S    1.011    35 C    0.988    88 H    0.973
                            87 H    0.973
    39   7 N    2.993 --    36 C    1.036    90 H    0.963    89 H    0.949
    40   6 C    3.962 --    43 N    0.991    44 C    0.966    91 H    0.947
                            37 C    0.919
    41   8 O    2.071 --    37 C    1.760    34 N    0.196
    42  16 S    2.108 --    38 C    1.011    45 C    1.004
    43   7 N    3.391 --    46 C    1.194    40 C    0.991    92 H    0.921
                            49 O    0.184
    44   6 C    3.991 --    47 C    1.013    48 C    0.991    40 C    0.966
                            93 H    0.966
    45   6 C    3.973 --    42 S    1.004    96 H    0.986    94 H    0.979
                            95 H    0.978
    46   6 C    3.937 --    49 O    1.709    43 N    1.194     6 C    0.968
    47   6 C    3.994 --    44 C    1.013    97 H    0.984    98 H    0.984
                            99 H    0.984
    48   6 C    3.994 --    50 C    1.016    44 C    0.991   100 H    0.978
                           101 H    0.971
    49   8 O    2.021 --    46 C    1.709    43 N    0.184
    50   6 C    3.991 --    48 C    1.016   102 H    0.987   103 H    0.986
                           104 H    0.985
    51   6 C    3.988 --    52 C    1.012     2 C    0.988   105 H    0.968
                           106 H    0.960
    52   6 C    3.993 --    53 C    1.015    51 C    1.012   107 H    0.968
                           108 H    0.964
    53   6 C    3.966 --    52 C    1.015   110 H    0.969    54 N    0.967
                           109 H    0.960
    54   7 N    3.163 --    55 C    1.062    53 C    0.967   111 H    0.931
                            56 N    0.122
    55   6 C    3.963 --    56 N    1.769    57 N    1.099    54 N    1.062
    56   7 N    2.981 --    55 C    1.769   112 H    0.930    54 N    0.122
                            57 N    0.102
    57   7 N    3.164 --    55 C    1.099   114 H    0.946   113 H    0.945
                            56 N    0.102
    58   6 C    3.982 --   116 H    0.984   117 H    0.982   115 H    0.974
                             6 C    0.952
    59   1 H    0.963 --     1 N    0.931
    60   1 H    0.997 --     2 C    0.947
    61   1 H    0.963 --     5 N    0.926
    62   1 H    0.991 --     6 C    0.943
    63   1 H    0.997 --     8 C    0.962
    64   1 H    0.969 --    10 N    0.940
    65   1 H    0.997 --    11 C    0.972
    66   1 H    0.999 --    11 C    0.969
    67   1 H    1.000 --    13 C    0.973
    68   1 H    1.000 --    13 C    0.973
    69   1 H    0.994 --    14 C    0.938
    70   1 H    0.964 --    17 N    0.928
    71   1 H    0.998 --    18 C    0.975
    72   1 H    0.997 --    18 C    0.967
    73   1 H    0.996 --    23 C    0.951
    74   1 H    0.962 --    27 N    0.923
    75   1 H    0.998 --    28 C    0.973
    76   1 H    0.995 --    28 C    0.969
    77   1 H    0.998 --    30 C    0.963
    78   1 H    0.999 --    30 C    0.969
    79   1 H    0.997 --    31 C    0.959
    80   1 H    0.997 --    33 C    0.970
    81   1 H    0.999 --    33 C    0.975
    82   1 H    0.976 --    34 N    0.928
    83   1 H    0.995 --    35 C    0.970
    84   1 H    0.997 --    35 C    0.975
    85   1 H    1.000 --    36 C    0.971
    86   1 H    0.999 --    36 C    0.977
    87   1 H    0.998 --    38 C    0.973
    88   1 H    0.997 --    38 C    0.973
    89   1 H    0.971 --    39 N    0.949
    90   1 H    0.983 --    39 N    0.963
    91   1 H    0.993 --    40 C    0.947
    92   1 H    0.965 --    43 N    0.921
    93   1 H    0.997 --    44 C    0.966
    94   1 H    0.994 --    45 C    0.979
    95   1 H    0.999 --    45 C    0.978
    96   1 H    0.997 --    45 C    0.986
    97   1 H    0.998 --    47 C    0.984
    98   1 H    0.997 --    47 C    0.984
    99   1 H    0.999 --    47 C    0.984
   100   1 H    0.999 --    48 C    0.978
   101   1 H    0.998 --    48 C    0.971
   102   1 H    0.999 --    50 C    0.987
   103   1 H    0.998 --    50 C    0.986
   104   1 H    0.998 --    50 C    0.985
   105   1 H    0.997 --    51 C    0.968
   106   1 H    0.997 --    51 C    0.960
   107   1 H    0.998 --    52 C    0.968
   108   1 H    0.997 --    52 C    0.964
   109   1 H    0.999 --    53 C    0.960
   110   1 H    0.999 --    53 C    0.969
   111   1 H    0.974 --    54 N    0.931
   112   1 H    0.980 --    56 N    0.930
   113   1 H    0.972 --    57 N    0.945
   114   1 H    0.971 --    57 N    0.946
   115   1 H    0.992 --    58 C    0.974
   116   1 H    0.998 --    58 C    0.984
   117   1 H    0.999 --    58 C    0.982
 ---------------------------------------------------------------------------

Topologies differ in total number of bonds
Writing topology from bond orders to xtbtopo.mol

molecular dipole:
                 x           y           z       tot (Debye)
 q only:        2.829      15.968       0.960
   full:        3.158      15.689       0.615      40.707
molecular quadrupole (traceless):
                xx          xy          yy          xz          yz          zz
 q only:       35.137     -21.318     -77.935      99.799     -83.959      42.798
  q+dip:       20.237     -22.289     -74.757     101.122     -86.820      54.520
   full:       20.590     -21.657     -72.688     100.484     -87.129      52.098


           -------------------------------------------------
          | TOTAL ENERGY             -185.514279926549 Eh   |
          | GRADIENT NORM               0.459232906958 Eh/α |
          | HOMO-LUMO GAP               0.228587023063 eV   |
           -------------------------------------------------

------------------------------------------------------------------------
 * finished run on 2026/05/23 at 12:26:05.655     
------------------------------------------------------------------------
 total:
 * wall-time:     0 d,  0 h,  0 min, 33.575 sec
 *  cpu-time:     0 d,  0 h,  0 min, 39.303 sec
 * ratio c/w:     1.171 speedup
 SCF:
 * wall-time:     0 d,  0 h,  0 min, 32.442 sec
 *  cpu-time:     0 d,  0 h,  0 min, 38.263 sec
 * ratio c/w:     1.179 speedup

normal termination of xtb
