      -----------------------------------------------------------      
     |                   =====================                   |     
     |                           x T B                           |     
     |                   =====================                   |     
     |                         S. Grimme                         |     
     |          Mulliken Center for Theoretical Chemistry        |     
     |                    University of Bonn                     |     
      -----------------------------------------------------------      

   * xtb version 6.7.1 (26dd68d) compiled by 'froitzheim@fs7' on 2026-05-14

   xtb is free software: you can redistribute it and/or modify it under
   the terms of the GNU Lesser General Public License as published by
   the Free Software Foundation, either version 3 of the License, or
   (at your option) any later version.
   
   xtb is distributed in the hope that it will be useful,
   but WITHOUT ANY WARRANTY; without even the implied warranty of
   MERCHANTABILITY or FITNESS FOR A PARTICULAR PURPOSE.  See the
   GNU Lesser General Public License for more details.
   
   Cite this work as:
   * C. Bannwarth, E. Caldeweyher, S. Ehlert, A. Hansen, P. Pracht,
     J. Seibert, S. Spicher, S. Grimme, WIREs Comput. Mol. Sci., 2020, 11,
     e01493. DOI: 10.1002/wcms.1493
   
   for g-xTB:
   * T. Froitzheim, M. Müller, A. Hansen, S. Grimme, ChemRxiv, 2025, preprint.
     DOI: 10.26434/chemrxiv-2025-bjxv
   for GFN2-xTB:
   * C. Bannwarth, S. Ehlert and S. Grimme., J. Chem. Theory Comput., 2019,
     15, 1652-1671. DOI: 10.1021/acs.jctc.8b01176
   for GFN1-xTB:
   * S. Grimme, C. Bannwarth, P. Shushkov, J. Chem. Theory Comput., 2017,
     13, 1989-2009. DOI: 10.1021/acs.jctc.7b00118
   for GFN0-xTB:
   * P. Pracht, E. Caldeweyher, S. Ehlert, S. Grimme, ChemRxiv, 2019, preprint.
     DOI: 10.26434/chemrxiv.8326202.v1
   for GFN-FF:
   * S. Spicher and S. Grimme, Angew. Chem. Int. Ed., 2020, 59, 15665-15673.
     DOI: 10.1002/anie.202004239
   
   for ALPB and GBSA implicit solvation:
   * S. Ehlert, M. Stahn, S. Spicher, S. Grimme, J. Chem. Theory Comput.,
     2021, 17, 4250-4261. DOI: 10.1021/acs.jctc.1c00471
   
   for ddCOSMO and CPCM-X implicit solvation:
   * M. Stahn, S. Ehlert, S. Grimme, J. Phys. Chem. A,
     2023, XX, XXXX-XXXX. DOI: 10.1021/acs.jpca.3c04382
   
   for DFT-D4:
   * E. Caldeweyher, C. Bannwarth and S. Grimme, J. Chem. Phys., 2017,
     147, 034112. DOI: 10.1063/1.4993215
   * E. Caldeweyher, S. Ehlert, A. Hansen, H. Neugebauer, S. Spicher,
     C. Bannwarth and S. Grimme, J. Chem. Phys., 2019, 150, 154122.
     DOI: 10.1063/1.5090222
   * E. Caldeweyher, J.-M. Mewes, S. Ehlert and S. Grimme, Phys. Chem. Chem. Phys.
     2020, 22, 8499-8512. DOI: 10.1039/D0CP00502A
   
   for sTDA-xTB:
   * S. Grimme and C. Bannwarth, J. Chem. Phys., 2016, 145, 054103.
     DOI: 10.1063/1.4959605
   
   in the mass-spec context:
   * V. Asgeirsson, C. Bauer and S. Grimme, Chem. Sci., 2017, 8, 4879.
     DOI: 10.1039/c7sc00601b
   * J. Koopman and S. Grimme, ACS Omega 2019, 4, 12, 15120-15133.
     DOI: 10.1021/acsomega.9b02011
   
   for metadynamics refer to:
   * S. Grimme, J. Chem. Theory Comput., 2019, 155, 2847-2862
     DOI: 10.1021/acs.jctc.9b00143
   
   for SPH calculations refer to:
   * S. Spicher and S. Grimme, J. Chem. Theory Comput., 2021, 17, 1701-1714
     DOI: 10.1021/acs.jctc.0c01306
   
   for ONIOM refer to:
   * C. Plett, A. Katbashev, S. Ehlert, S. Grimme, M. Bursch,
     Phys. Chem. Chem. Phys., 2023, 25, 17860-17868. DOI: 10.1039/D3CP02178E
   
   for DIPRO refer to:
   * J. Kohn, N. Gildemeister, S. Grimme, D. Fazzi, A. Hansen,
     J. Chem. Phys. 159, 144106 (2023). DOI: 10.1063/5.0167484
   
   for PTB refer to:
   * S. Grimme, M. Mueller, A. Hansen, J. Chem. Phys., 2023, 158, 124111.
     DOI: 10.1063/5.0137838
   
   with help from (in alphabetical order)
   P. Atkinson, C. Bannwarth, F. Bohle, G. Brandenburg, E. Caldeweyher,
   M. Checinski, S. Dohm, S. Ehlert, S. Ehrlich, M. Friede, T. Froitzheim,
   I. Gerasimov, C. Hölzer, A. Katbashev, J. Kohn, J. Koopman, C. Lavigne,
   S. Lehtola, F. März, M. Müller, F. Musil, H. Neugebauer, J. Pisarek,
   C. Plett, P. Pracht, F. Pultar, J. Seibert, P. Shushkov, S. Spicher,
   M. Stahn, M. Steiner, T. Strunk, J. Stückrath, T. Rose, and J. Unsleber
   
 * started run on 2026/05/23 at 08:19:06.377     
   ID    Z sym.   atoms
    1    7 N      1, 5, 10, 17, 23, 28, 35
    2    6 C      2, 3, 6-8, 11-14, 16, 20, 21, 24-26, 29, 31-34, 36-40
    3    8 O      4, 9, 15, 18, 19, 22, 27, 30
    4    1 H      41-70

           -------------------------------------------------
          |                Calculation Setup                |
           -------------------------------------------------

          program call               : /home/xchen/software/xtb-6.7.1-gxtb/bin/xtb /home/xchen/Test/benchmark/md_sampled/01_6_0109_n1/snap_0195.xyz --charge -1 --gxtb --norestart
          coordinate file            : /home/xchen/Test/benchmark/md_sampled/01_6_0109_n1/snap_0195.xyz
          omp threads                :                    48

core increment energy         -1.7791297691186E+03 Eh
dispersion energy              1.0438767057442E-02 Eh
molecular charge              -1.0000000000000E+00 e
number of electrons            2.1399999999800E+02 e
number of unpaired electrons   0.0000000000000E+00 e
wavefunction                   restricted
integral cutoff                2.6907767250513E+01 bohr
energy convergence             1.0000000000000E-06 Eh
density convergence            2.0000000000000E-05 e

------------------------------------------------------------
  cycle        total energy    energy error   density error
------------------------------------------------------------
      1     -1954.946422287  -1.7582709E+02   0.0000000E+00
      2     -1955.294797750  -3.4837546E-01   2.6397390E-02
      3     -1955.513020738  -2.1822299E-01   2.0577659E-02
      4     -1955.964644403  -4.5162367E-01   1.6152640E-02
      5     -1955.972056649  -7.4122458E-03   1.1535974E-03
      6     -1955.972598392  -5.4174313E-04   1.9767745E-04
      7     -1955.972655169  -5.6777494E-05   6.8502549E-05
      8     -1955.972659260  -4.0907192E-06   1.9837563E-05
      9     -1955.972659785  -5.2538948E-07   4.2629327E-06
------------------------------------------------------------

electronic energy             -1.7685332943394E+02 Eh
total energy                  -1.9559726597855E+03 Eh

Post processing:
 | Mayer-Wiberg bond orders
 | Molecular Multipole Moments

 total:                                  13.252 sec
 - increment                              0.000 sec (  0%)
 - repulsion                              0.017 sec (  0%)
 - dispersion                             0.339 sec (  2%)
 - coulomb                                0.085 sec (  0%)
 - exchange                               0.008 sec (  0%)
 - hamiltonian                            0.337 sec (  2%)
 - acp                                    0.140 sec (  1%)
 - spin polarization                      0.000 sec (  0%)
 - post processing                        0.053 sec (  0%)
 - scc                                   10.753 sec ( 81%)
 - coulomb gradient                       0.032 sec (  0%)
 - dispersion gradient                    0.015 sec (  0%)
 - exchange gradient                      0.990 sec (  7%)
 - repulsion gradient                     0.003 sec (  0%)
 - acp gradient                           0.202 sec (  1%)
 - hamiltonian gradient                   0.326 sec (  2%)
 - gradient                               1.568 sec ( 11%)

         :::::::::::::::::::::::::::::::::::::::::::::::::::::
         ::                     SUMMARY                     ::
         :::::::::::::::::::::::::::::::::::::::::::::::::::::
         :: total energy           -1955.972659785482 Eh    ::
         :: gradient norm              0.353094208520 Eh/a0 ::
         :: HOMO-LUMO gap              6.585367574151 eV    ::
         ::.................................................::
         :: add. restraining           0.000000000000 Eh    ::
         :: total charge              -1.000000000000 e     ::
         :::::::::::::::::::::::::::::::::::::::::::::::::::::

           -------------------------------------------------
          |                Property Printout                |
           -------------------------------------------------

    * Orbital Energies and Occupations
------------------------------------------------------------------
      #    Occupation            Energy/Eh            Energy/eV
------------------------------------------------------------------
      1        2.0000           -1.2774694             -34.7617
    ...           ...                  ...                  ...
     95        2.0000           -0.3070647              -8.3557
     96        2.0000           -0.3044429              -8.2843
     97        2.0000           -0.2993077              -8.1446
     98        2.0000           -0.2980264              -8.1097
     99        2.0000           -0.2964653              -8.0672
    100        2.0000           -0.2958468              -8.0504
    101        2.0000           -0.2831614              -7.7052
    102        2.0000           -0.2828593              -7.6970
    103        2.0000           -0.2703996              -7.3579
    104        2.0000           -0.2537447              -6.9047
    105        2.0000           -0.1942134              -5.2848
    106        2.0000           -0.1842386              -5.0134
    107        2.0000           -0.1789148              -4.8685 (HOMO)
    108                          0.0630930               1.7168 (LUMO)
    109                          0.0705684               1.9203
    110                          0.0767427               2.0883
    111                          0.0828163               2.2535
    112                          0.0857898               2.3345
    113                          0.0884812               2.4077
    114                          0.0922175               2.5094
    115                          0.1095752               2.9817
    116                          0.1438775               3.9151
    117                          0.2110594               5.7432
    118                          0.2174332               5.9167
    ...                                ...                  ...
    190                          0.9730936              26.4792
------------------------------------------------------------------
               HL-Gap            0.2420078 Eh            6.5854 eV
------------------------------------------------------------------

Atomic charges and shell populations (in atomic units):
------------------------------------------------------
     #    Z                q          p(s)       p(p)
------------------------------------------------------
     1    7 N      -0.373433      1.371148   4.002285
     2    6 C      -0.075473      1.119865   2.955608
     3    6 C       0.410729      1.104267   2.485004
     4    8 O      -0.509202      1.852420   4.656782
     5    7 N      -0.389636      1.378290   4.011346
     6    6 C       0.029276      1.139828   2.830896
     7    6 C       0.404213      1.115512   2.480276
     8    6 C      -0.018337      1.122533   2.895804
     9    8 O      -0.547679      1.857599   4.690080
    10    7 N      -0.330196      1.378180   3.952016
    11    6 C      -0.175140      1.171887   3.003253
    12    6 C       0.408951      1.076826   2.514223
    13    6 C      -0.231533      1.157117   3.074417
    14    6 C      -0.071010      1.127280   2.943731
    15    8 O      -0.512391      1.856809   4.655583
    16    6 C       0.506142      1.086001   2.407856
    17    7 N      -0.318775      1.354896   3.963879
    18    8 O      -0.674114      1.865816   4.808298
    19    8 O      -0.694257      1.867306   4.826951
    20    6 C       0.389678      1.105489   2.504832
    21    6 C      -0.017545      1.140478   2.877067
    22    8 O      -0.564557      1.862589   4.701968
    23    7 N      -0.363682      1.398560   3.965122
    24    6 C      -0.250984      1.158325   3.092659
    25    6 C       0.413982      1.107291   2.478727
    26    6 C      -0.083005      1.123296   2.959709
    27    8 O      -0.543753      1.854044   4.689709
    28    7 N      -0.343269      1.357281   3.985988
    29    6 C       0.426551      1.104869   2.468579
    30    8 O      -0.558940      1.859254   4.699686
    31    6 C      -0.115175      1.139004   2.976171
    32    6 C      -0.098825      1.117019   2.981806
    33    6 C      -0.005595      1.163045   2.842550
    34    6 C      -0.034308      1.121619   2.912689
    35    7 N      -0.264466      1.359482   3.904983
    36    6 C       0.060904      1.104612   2.834483
    37    6 C      -0.116106      1.149067   2.967039
    38    6 C      -0.141648      1.139795   3.001853
    39    6 C      -0.124251      1.159618   2.964633
    40    6 C      -0.115836      1.156281   2.959555
    41    1 H       0.263853      0.736147
    42    1 H       0.124756      0.875244
    43    1 H       0.135649      0.864351
    44    1 H       0.259720      0.740280
    45    1 H       0.128266      0.871734
    46    1 H       0.129569      0.870431
    47    1 H       0.270450      0.729550
    48    1 H       0.119722      0.880278
    49    1 H       0.154664      0.845336
    50    1 H       0.077957      0.922043
    51    1 H       0.086709      0.913291
    52    1 H       0.144663      0.855337
    53    1 H       0.119820      0.880180
    54    1 H       0.280616      0.719384
    55    1 H       0.129636      0.870364
    56    1 H       0.260527      0.739473
    57    1 H       0.099093      0.900907
    58    1 H       0.121067      0.878933
    59    1 H       0.094949      0.905051
    60    1 H       0.134645      0.865355
    61    1 H       0.147967      0.852033
    62    1 H       0.280922      0.719078
    63    1 H       0.108034      0.891966
    64    1 H       0.140175      0.859825
    65    1 H       0.139531      0.860469
    66    1 H       0.254095      0.745905
    67    1 H       0.110153      0.889847
    68    1 H       0.110103      0.889897
    69    1 H       0.088342      0.911658
    70    1 H       0.097042      0.902958
------------------------------------------------------


Wiberg/Mayer (AO) data.
largest (>0.10) Wiberg bond orders for each atom

 ---------------------------------------------------------------------------
     #   Z sym  total        # sym  WBO       # sym  WBO       # sym  WBO
 ---------------------------------------------------------------------------
     1   7 N    3.270 --     7 C    1.136     2 C    1.001    41 O    0.886
                             9 C    0.129
     2   6 C    3.921 --     1 N    1.001    43 O    0.937    42 O    0.936
                             3 C    0.922
     3   6 C    3.871 --     4 C    1.699     5 N    1.181     2 C    0.922
     4   8 C    1.978 --     3 C    1.699     5 N    0.163
     5   7 N    3.279 --     3 C    1.181     6 C    0.942    44 O    0.881
                             4 C    0.163
     6   6 C    3.919 --    29 C    0.950    31 C    0.945     5 N    0.942
                            45 O    0.936
     7   6 C    3.860 --     9 C    1.640     1 N    1.136     8 C    0.990
     8   6 C    3.924 --     7 C    0.990    10 N    0.967    46 O    0.928
                            11 C    0.902
     9   8 C    1.930 --     7 C    1.640     1 N    0.129
    10   7 N    3.324 --    12 C    1.215     8 C    0.967    47 O    0.888
                            15 C    0.168
    11   6 C    3.922 --    13 C    1.023    48 O    0.957    49 O    0.929
                             8 C    0.902
    12   6 C    3.897 --    15 C    1.658    10 N    1.215    14 C    0.980
    13   6 C    3.959 --    11 C    1.023    51 O    0.955    50 O    0.953
                            16 C    0.899
    14   6 C    3.912 --    12 C    0.980    17 N    0.956    52 O    0.945
                            53 O    0.931
    15   8 C    1.941 --    12 C    1.658    10 N    0.168
    16   6 C    3.870 --    18 C    1.491    19 C    1.457    13 C    0.899
    17   7 N    3.359 --    20 C    1.287    14 C    0.956    54 O    0.879
                            22 C    0.167
    18   8 C    1.768 --    16 C    1.491    19 C    0.203
    19   8 C    1.748 --    16 C    1.457    18 C    0.203
    20   6 C    3.883 --    22 C    1.606    17 N    1.287    21 C    0.921
    21   6 C    3.927 --    24 C    1.014    23 N    0.948    55 O    0.930
                            20 C    0.921
    22   8 C    1.885 --    20 C    1.606    17 N    0.167
    23   7 N    3.282 --    25 C    1.184    21 C    0.948    56 O    0.897
                            27 C    0.156
    24   6 C    3.954 --    21 C    1.014    57 O    0.971    59 O    0.969
                            58 O    0.965
    25   6 C    3.860 --    27 C    1.654    23 N    1.184    26 C    0.958
    26   6 C    3.932 --    28 N    0.999    25 C    0.958    60 O    0.941
                            61 O    0.925
    27   8 C    1.950 --    25 C    1.654    23 N    0.156
    28   7 N    3.323 --    29 C    1.208    26 C    0.999    62 O    0.864
                            30 C    0.166
    29   6 C    3.865 --    30 C    1.637    28 N    1.208     6 C    0.950
    30   8 C    1.922 --    29 C    1.637    28 N    0.166
    31   6 C    3.952 --    32 C    1.037    63 O    0.950    64 O    0.948
                             6 C    0.945
    32   6 C    3.957 --    33 C    1.581    34 C    1.158    31 C    1.037
    33   6 C    3.906 --    32 C    1.581    35 N    1.177    65 O    0.948
    34   6 C    3.972 --    37 C    1.379    36 C    1.228    32 C    1.158
    35   7 N    3.434 --    33 C    1.177    36 C    1.136    66 O    0.904
    36   6 C    3.943 --    38 C    1.373    34 C    1.228    35 N    1.136
    37   6 C    3.969 --    39 C    1.462    34 C    1.379    67 O    0.953
                            38 C    0.103
    38   6 C    3.964 --    40 C    1.461    36 C    1.373    68 O    0.954
                            37 C    0.103
    39   6 C    3.962 --    37 C    1.462    40 C    1.379    69 O    0.960
    40   6 C    3.964 --    38 C    1.461    39 C    1.379    70 O    0.958
    41   1 O    0.930 --     1 N    0.886
    42   1 O    0.984 --     2 C    0.936
    43   1 O    0.982 --     2 C    0.937
    44   1 O    0.933 --     5 N    0.881
    45   1 O    0.984 --     6 C    0.936
    46   1 O    0.983 --     8 C    0.928
    47   1 O    0.927 --    10 N    0.888
    48   1 O    0.986 --    11 C    0.957
    49   1 O    0.976 --    11 C    0.929
    50   1 O    0.994 --    13 C    0.953
    51   1 O    0.992 --    13 C    0.955
    52   1 O    0.979 --    14 C    0.945
    53   1 O    0.986 --    14 C    0.931
    54   1 O    0.921 --    17 N    0.879
    55   1 O    0.983 --    21 C    0.930
    56   1 O    0.932 --    23 N    0.897
    57   1 O    0.990 --    24 C    0.971
    58   1 O    0.985 --    24 C    0.965
    59   1 O    0.991 --    24 C    0.969
    60   1 O    0.982 --    26 C    0.941
    61   1 O    0.978 --    26 C    0.925
    62   1 O    0.921 --    28 N    0.864
    63   1 O    0.988 --    31 C    0.950
    64   1 O    0.980 --    31 C    0.948
    65   1 O    0.981 --    33 C    0.948
    66   1 O    0.935 --    35 N    0.904
    67   1 O    0.988 --    37 C    0.953
    68   1 O    0.988 --    38 C    0.954
    69   1 O    0.992 --    39 C    0.960
    70   1 O    0.991 --    40 C    0.958
 ---------------------------------------------------------------------------

Topologies differ in total number of bonds
Writing topology from bond orders to xtbtopo.mol

Atomic dipole moments (in atomic units):
---------------------------------------------------------
     #    Z                 x            y            z
---------------------------------------------------------
           total     3.201089     8.821949     8.994335
---------------------------------------------------------
         |total|    12.998916    33.039948 Debye


           -------------------------------------------------
          | TOTAL ENERGY            -1955.972659785482 Eh   |
          | GRADIENT NORM               0.353094208520 Eh/α |
           -------------------------------------------------

------------------------------------------------------------------------
 * finished run on 2026/05/23 at 08:19:20.254     
------------------------------------------------------------------------
 total:
 * wall-time:     0 d,  0 h,  0 min, 13.875 sec
 *  cpu-time:     0 d,  0 h,  0 min, 27.697 sec
 * ratio c/w:     1.996 speedup
 SCF:
 * wall-time:     0 d,  0 h,  0 min, 13.464 sec
 *  cpu-time:     0 d,  0 h,  0 min, 27.326 sec
 * ratio c/w:     2.030 speedup

normal termination of xtb
