      -----------------------------------------------------------      
     |                   =====================                   |     
     |                           x T B                           |     
     |                   =====================                   |     
     |                         S. Grimme                         |     
     |          Mulliken Center for Theoretical Chemistry        |     
     |                    University of Bonn                     |     
      -----------------------------------------------------------      

   * xtb version 6.7.1 (edcfbbe) compiled by 'albert@albert-system' on 2024-07-22

   xtb is free software: you can redistribute it and/or modify it under
   the terms of the GNU Lesser General Public License as published by
   the Free Software Foundation, either version 3 of the License, or
   (at your option) any later version.
   
   xtb is distributed in the hope that it will be useful,
   but WITHOUT ANY WARRANTY; without even the implied warranty of
   MERCHANTABILITY or FITNESS FOR A PARTICULAR PURPOSE.  See the
   GNU Lesser General Public License for more details.
   
   Cite this work as:
   * C. Bannwarth, E. Caldeweyher, S. Ehlert, A. Hansen, P. Pracht,
     J. Seibert, S. Spicher, S. Grimme, WIREs Comput. Mol. Sci., 2020, 11,
     e01493. DOI: 10.1002/wcms.1493
   
   for GFN2-xTB:
   * C. Bannwarth, S. Ehlert and S. Grimme., J. Chem. Theory Comput., 2019,
     15, 1652-1671. DOI: 10.1021/acs.jctc.8b01176
   for GFN1-xTB:
   * S. Grimme, C. Bannwarth, P. Shushkov, J. Chem. Theory Comput., 2017,
     13, 1989-2009. DOI: 10.1021/acs.jctc.7b00118
   for GFN0-xTB:
   * P. Pracht, E. Caldeweyher, S. Ehlert, S. Grimme, ChemRxiv, 2019, preprint.
     DOI: 10.26434/chemrxiv.8326202.v1
   for GFN-FF:
   * S. Spicher and S. Grimme, Angew. Chem. Int. Ed., 2020, 59, 15665-15673.
     DOI: 10.1002/anie.202004239
   
   for ALPB and GBSA implicit solvation:
   * S. Ehlert, M. Stahn, S. Spicher, S. Grimme, J. Chem. Theory Comput.,
     2021, 17, 4250-4261. DOI: 10.1021/acs.jctc.1c00471
   
   for ddCOSMO and CPCM-X implicit solvation:
   * M. Stahn, S. Ehlert, S. Grimme, J. Phys. Chem. A,
     2023, XX, XXXX-XXXX. DOI: 10.1021/acs.jpca.3c04382
   
   for DFT-D4:
   * E. Caldeweyher, C. Bannwarth and S. Grimme, J. Chem. Phys., 2017,
     147, 034112. DOI: 10.1063/1.4993215
   * E. Caldeweyher, S. Ehlert, A. Hansen, H. Neugebauer, S. Spicher,
     C. Bannwarth and S. Grimme, J. Chem. Phys., 2019, 150, 154122.
     DOI: 10.1063/1.5090222
   * E. Caldeweyher, J.-M. Mewes, S. Ehlert and S. Grimme, Phys. Chem. Chem. Phys.
     2020, 22, 8499-8512. DOI: 10.1039/D0CP00502A
   
   for sTDA-xTB:
   * S. Grimme and C. Bannwarth, J. Chem. Phys., 2016, 145, 054103.
     DOI: 10.1063/1.4959605
   
   in the mass-spec context:
   * V. Asgeirsson, C. Bauer and S. Grimme, Chem. Sci., 2017, 8, 4879.
     DOI: 10.1039/c7sc00601b
   * J. Koopman and S. Grimme, ACS Omega 2019, 4, 12, 15120-15133.
     DOI: 10.1021/acsomega.9b02011
   
   for metadynamics refer to:
   * S. Grimme, J. Chem. Theory Comput., 2019, 155, 2847-2862
     DOI: 10.1021/acs.jctc.9b00143
   
   for SPH calculations refer to:
   * S. Spicher and S. Grimme, J. Chem. Theory Comput., 2021, 17, 1701-1714
     DOI: 10.1021/acs.jctc.0c01306
   
   for ONIOM refer to:
   * C. Plett, A. Katbashev, S. Ehlert, S. Grimme, M. Bursch,
     Phys. Chem. Chem. Phys., 2023, 25, 17860-17868. DOI: 10.1039/D3CP02178E
   
   for DIPRO refer to:
   * J. Kohn, N. Gildemeister, S. Grimme, D. Fazzi, A. Hansen,
     J. Chem. Phys., 2023, just accepted.
   
   for PTB refer to:
   * S. Grimme, M. Mueller, A. Hansen, J. Chem. Phys., 2023, 158, 124111.
     DOI: 10.1063/5.0137838
   
   with help from (in alphabetical order)
   P. Atkinson, C. Bannwarth, F. Bohle, G. Brandenburg, E. Caldeweyher
   M. Checinski, S. Dohm, S. Ehlert, S. Ehrlich, I. Gerasimov, C. Hölzer
   A. Katbashev, J. Kohn, J. Koopman, C. Lavigne, S. Lehtola, F. März, M. Müller,
   F. Musil, H. Neugebauer, J. Pisarek, C. Plett, P. Pracht, F. Pultar,
   J. Seibert, P. Shushkov, S. Spicher, M. Stahn, M. Steiner, T. Strunk,
   J. Stückrath, T. Rose, and J. Unsleber
   
 * started run on 2026/05/23 at 12:47:00.616     
   ID    Z sym.   atoms
    1    7 N      1, 5, 10, 17, 18, 26, 33, 36, 42, 49, 54
    2    6 C      2, 3, 6-8, 11-14, 19-22, 24, 25, 27-30, 32, 34, 37, 39, 40,
                  43-45, 47, 50-52, 55
    3    8 O      4, 9, 15, 16, 23, 31, 35, 38, 41, 46, 48, 53, 56
    4    1 H      57-109

           -------------------------------------------------
          |                Calculation Setup                |
           -------------------------------------------------

          program call               : /home/xchen/software/xtb-6.7.1/xtb-dist/bin/xtb /home/xchen/Test/benchmark/md_sampled/08_7_0366_0/snap_0113.xyz --charge 0 --gfn 2 --norestart
          coordinate file            : /home/xchen/Test/benchmark/md_sampled/08_7_0366_0/snap_0113.xyz
          omp threads                :                    48


           -------------------------------------------------
          |                 G F N 2 - x T B                 |
           -------------------------------------------------

        Reference                      10.1021/acs.jctc.8b01176
      * Hamiltonian:
        H0-scaling (s, p, d)           1.850000    2.230000    2.230000
        zeta-weighting                 0.500000
      * Dispersion:
        s8                             2.700000
        a1                             0.520000
        a2                             5.000000
        s9                             5.000000
      * Repulsion:
        kExp                           1.500000    1.000000
        rExp                           1.000000
      * Coulomb:
        alpha                          2.000000
        third order                    shell-resolved
        anisotropic                    true
        a3                             3.000000
        a5                             4.000000
        cn-shift                       1.200000
        cn-exp                         4.000000
        max-rad                        5.000000


          ...................................................
          :                      SETUP                      :
          :.................................................:
          :  # basis functions                 277          :
          :  # atomic orbitals                 277          :
          :  # shells                          165          :
          :  # electrons                       314          :
          :  max. iterations                   250          :
          :  Hamiltonian                  GFN2-xTB          :
          :  restarted?                      false          :
          :  GBSA solvation                  false          :
          :  PC potential                    false          :
          :  electronic temp.          300.0000000     K    :
          :  accuracy                    1.0000000          :
          :  -> integral cutoff          0.2500000E+02      :
          :  -> integral neglect         0.1000000E-07      :
          :  -> SCF convergence          0.1000000E-05 Eh   :
          :  -> wf. convergence          0.1000000E-03 e    :
          :  Broyden damping             0.4000000          :
          :  net charge                          0          :
          :  unpaired electrons                  0          :
          ...................................................

 iter      E             dE          RMSdq      gap      omega  full diag
   1   -181.9561351 -0.181956E+03  0.436E+00    3.80       0.0  T
   2   -182.4867115 -0.530576E+00  0.228E+00    3.33       1.0  T
   3   -182.5088285 -0.221169E-01  0.126E+00    3.45       1.0  T
   4   -182.5122261 -0.339760E-02  0.231E-01    3.09       1.0  T
   5   -182.5163170 -0.409094E-02  0.965E-02    3.20       1.0  T
   6   -182.5163899 -0.729301E-04  0.395E-02    3.21       1.0  T
   7   -182.5164046 -0.146452E-04  0.137E-02    3.22       1.0  T
   8   -182.5164080 -0.347174E-05  0.519E-03    3.22       1.8  T
   9   -182.5164085 -0.498481E-06  0.206E-03    3.21       4.7  T
  10   -182.5164086 -0.471716E-07  0.918E-04    3.21      10.4  T
  11   -182.5164086 -0.283117E-07  0.229E-04    3.21      41.8  T

   *** convergence criteria satisfied after 11 iterations ***

         #    Occupation            Energy/Eh            Energy/eV
      -------------------------------------------------------------
         1        2.0000           -0.7200439             -19.5934
       ...           ...                  ...                  ...
       151        2.0000           -0.3965831             -10.7916
       152        2.0000           -0.3952985             -10.7566
       153        2.0000           -0.3921387             -10.6706
       154        2.0000           -0.3899643             -10.6115
       155        2.0000           -0.3865952             -10.5198
       156        2.0000           -0.3828492             -10.4179
       157        2.0000           -0.3627122              -9.8699 (HOMO)
       158                         -0.2445937              -6.6557 (LUMO)
       159                         -0.2403234              -6.5395
       160                         -0.2374382              -6.4610
       161                         -0.2356977              -6.4137
       162                         -0.2347765              -6.3886
       ...                                ...                  ...
       277                          0.7476687              20.3451
      -------------------------------------------------------------
                  HL-Gap            0.1181185 Eh            3.2142 eV
             Fermi-level           -0.3036530 Eh           -8.2628 eV

 SCC (total)                   0 d,  0 h,  0 min, 13.803 sec
 SCC setup                      ...        0 min,  0.047 sec (  0.340%)
 Dispersion                     ...        0 min,  0.125 sec (  0.903%)
 classical contributions        ...        0 min,  0.011 sec (  0.076%)
 integral evaluation            ...        0 min,  0.500 sec (  3.620%)
 iterations                     ...        0 min, 12.225 sec ( 88.564%)
 molecular gradient             ...        0 min,  0.848 sec (  6.147%)
 printout                       ...        0 min,  0.048 sec (  0.349%)

         :::::::::::::::::::::::::::::::::::::::::::::::::::::
         ::                     SUMMARY                     ::
         :::::::::::::::::::::::::::::::::::::::::::::::::::::
         :: total energy            -180.518750674814 Eh    ::
         :: gradient norm              0.391096449287 Eh/a0 ::
         :: HOMO-LUMO gap              3.214168524534 eV    ::
         ::.................................................::
         :: SCC energy              -182.508241513625 Eh    ::
         :: -> isotropic ES            0.464683970245 Eh    ::
         :: -> anisotropic ES          0.004143971715 Eh    ::
         :: -> anisotropic XC          0.040624781276 Eh    ::
         :: -> dispersion             -0.131516352595 Eh    ::
         :: repulsion energy           1.989490838811 Eh    ::
         :: add. restraining           0.000000000000 Eh    ::
         :: total charge              -0.000000000000 e     ::
         :::::::::::::::::::::::::::::::::::::::::::::::::::::

           -------------------------------------------------
          |                Property Printout                |
           -------------------------------------------------

    * Orbital Energies and Occupations

         #    Occupation            Energy/Eh            Energy/eV
      -------------------------------------------------------------
         1        2.0000           -0.7200439             -19.5934
       ...           ...                  ...                  ...
       145        2.0000           -0.4105597             -11.1719
       146        2.0000           -0.4090909             -11.1319
       147        2.0000           -0.4057076             -11.0399
       148        2.0000           -0.4055765             -11.0363
       149        2.0000           -0.4035232             -10.9804
       150        2.0000           -0.4012688             -10.9191
       151        2.0000           -0.3965831             -10.7916
       152        2.0000           -0.3952985             -10.7566
       153        2.0000           -0.3921387             -10.6706
       154        2.0000           -0.3899643             -10.6115
       155        2.0000           -0.3865952             -10.5198
       156        2.0000           -0.3828492             -10.4179
       157        2.0000           -0.3627122              -9.8699 (HOMO)
       158                         -0.2445937              -6.6557 (LUMO)
       159                         -0.2403234              -6.5395
       160                         -0.2374382              -6.4610
       161                         -0.2356977              -6.4137
       162                         -0.2347765              -6.3886
       163                         -0.2346504              -6.3852
       164                         -0.2236757              -6.0865
       165                         -0.2164657              -5.8903
       166                         -0.2064220              -5.6170
       167                         -0.1973101              -5.3691
       168                         -0.1938268              -5.2743
       ...                                ...                  ...
       277                          0.7476687              20.3451
      -------------------------------------------------------------
                  HL-Gap            0.1181185 Eh            3.2142 eV
             Fermi-level           -0.3036530 Eh           -8.2628 eV

     #   Z          covCN         q      C6AA      α(0)
     1   7 N        2.680    -0.208    25.532     7.505
     2   6 C        3.780     0.009    20.449     6.442
     3   6 C        2.746     0.273    22.383     7.747
     4   8 O        0.859    -0.433    22.358     6.340
     5   7 N        2.677    -0.203    25.412     7.487
     6   6 C        3.783     0.016    20.317     6.421
     7   6 C        2.773     0.280    22.258     7.727
     8   6 C        3.790     0.009    20.428     6.437
     9   8 O        0.858    -0.388    21.451     6.210
    10   7 N        2.690    -0.212    25.618     7.517
    11   6 C        3.846    -0.094    22.256     6.711
    12   6 C        2.762     0.281    22.237     7.723
    13   6 C        2.744     0.284    22.197     7.714
    14   6 C        3.805     0.013    20.358     6.423
    15   8 O        0.858    -0.389    21.464     6.212
    16   8 O        0.858    -0.374    21.167     6.168
    17   7 N        2.633    -0.302    27.789     7.829
    18   7 N        2.688    -0.157    24.391     7.335
    19   6 C        3.833    -0.086    22.110     6.690
    20   6 C        2.764     0.275    22.350     7.742
    21   6 C        3.854    -0.010    20.718     6.474
    22   6 C        3.792     0.014    20.346     6.424
    23   8 O        0.859    -0.439    22.485     6.358
    24   6 C        3.744    -0.108    22.644     6.788
    25   6 C        3.734    -0.106    22.618     6.788
    26   7 N        2.679    -0.178    24.846     7.403
    27   6 C        3.745    -0.050    21.540     6.621
    28   6 C        2.723     0.279    22.283     7.728
    29   6 C        3.746    -0.090    22.298     6.736
    30   6 C        3.795     0.003    20.530     6.452
    31   8 O        0.859    -0.401    21.697     6.245
    32   6 C        2.739     0.271    22.417     7.752
    33   7 N        2.697    -0.166    24.582     7.364
    34   6 C        3.738     0.113    18.808     6.188
    35   8 O        0.861    -0.470    23.135     6.449
    36   7 N        2.634    -0.268    26.938     7.708
    37   6 C        2.756     0.282    22.229     7.721
    38   8 O        1.657    -0.459    22.026     6.336
    39   6 C        3.752    -0.129    23.035     6.844
    40   6 C        3.746     0.004    20.571     6.469
    41   8 O        0.860    -0.422    22.129     6.307
    42   7 N        2.679    -0.166    24.588     7.365
    43   6 C        3.786    -0.081    22.067     6.691
    44   6 C        2.753     0.281    22.250     7.724
    45   6 C        3.813    -0.103    22.460     6.745
    46   8 O        0.858    -0.448    22.657     6.382
    47   6 C        2.744     0.277    22.313     7.734
    48   8 O        0.856    -0.458    22.884     6.414
    49   7 N        2.643    -0.275    27.103     7.732
    50   6 C        3.797    -0.056    21.585     6.615
    51   6 C        3.788    -0.078    21.997     6.680
    52   6 C        2.738     0.267    22.489     7.764
    53   8 O        0.860    -0.397    21.616     6.234
    54   7 N        2.631    -0.312    28.037     7.864
    55   6 C        3.671     0.077    19.522     6.333
    56   8 O        1.656    -0.429    21.421     6.248
    57   1 H        0.860     0.194     1.135     1.669
    58   1 H        0.927     0.093     1.846     2.125
    59   1 H        0.854     0.172     1.259     1.758
    60   1 H        0.919     0.112     1.680     2.027
    61   1 H        0.929     0.092     1.863     2.134
    62   1 H        0.861     0.182     1.204     1.719
    63   1 H        0.928     0.084     1.936     2.176
    64   1 H        0.922     0.042     2.426     2.436
    65   1 H        0.926     0.075     2.036     2.231
    66   1 H        0.861     0.182     1.204     1.719
    67   1 H        0.861     0.196     1.128     1.663
    68   1 H        0.856     0.217     1.022     1.584
    69   1 H        0.925     0.066     2.125     2.280
    70   1 H        0.925     0.042     2.426     2.436
    71   1 H        0.929     0.038     2.474     2.459
    72   1 H        0.923     0.094     1.837     2.120
    73   1 H        0.917     0.034     2.529     2.487
    74   1 H        0.924     0.041     2.431     2.438
    75   1 H        0.917     0.039     2.468     2.457
    76   1 H        0.924     0.027     2.630     2.536
    77   1 H        0.919     0.027     2.627     2.535
    78   1 H        0.911     0.038     2.484     2.465
    79   1 H        0.859     0.187     1.175     1.698
    80   1 H        0.907     0.053     2.282     2.363
    81   1 H        0.919     0.047     2.363     2.404
    82   1 H        0.908     0.054     2.271     2.358
    83   1 H        0.927     0.069     2.097     2.265
    84   1 H        0.926     0.090     1.881     2.145
    85   1 H        0.862     0.202     1.094     1.638
    86   1 H        0.928     0.031     2.573     2.508
    87   1 H        0.859     0.213     1.044     1.601
    88   1 H        0.861     0.193     1.143     1.674
    89   1 H        0.804     0.324     0.654     1.270
    90   1 H        0.923     0.044     2.390     2.418
    91   1 H        0.927     0.052     2.296     2.369
    92   1 H        0.921     0.046     2.376     2.411
    93   1 H        0.909     0.053     2.288     2.366
    94   1 H        0.860     0.180     1.217     1.728
    95   1 H        0.930     0.071     2.071     2.250
    96   1 H        0.926     0.039     2.461     2.453
    97   1 H        0.928     0.051     2.309     2.376
    98   1 H        0.928     0.099     1.793     2.094
    99   1 H        0.863     0.205     1.083     1.630
   100   1 H        0.862     0.199     1.112     1.651
   101   1 H        0.926     0.086     1.914     2.163
   102   1 H        0.924     0.063     2.168     2.303
   103   1 H        0.916     0.064     2.156     2.297
   104   1 H        0.923     0.072     2.061     2.245
   105   1 H        0.861     0.170     1.272     1.766
   106   1 H        0.859     0.194     1.137     1.670
   107   1 H        0.916     0.058     2.219     2.330
   108   1 H        0.922     0.029     2.600     2.522
   109   1 H        0.806     0.312     0.687     1.302

 Mol. C6AA /au·bohr⁶  :     113117.048138
 Mol. C8AA /au·bohr⁸  :    2501840.011281
 Mol. α(0) /au        :        499.780659


Wiberg/Mayer (AO) data.
largest (>0.10) Wiberg bond orders for each atom

 ---------------------------------------------------------------------------
     #   Z sym  total        # sym  WBO       # sym  WBO       # sym  WBO
 ---------------------------------------------------------------------------
     1   7 N    3.344 --     7 C    1.216     2 C    0.937    57 H    0.923
                             9 O    0.172
     2   6 C    3.955 --    50 C    0.975     3 C    0.958    58 H    0.951
                             1 N    0.937
     3   6 C    3.944 --     4 O    1.690     5 N    1.223     2 C    0.958
     4   8 O    2.017 --     3 C    1.690     5 N    0.195
     5   7 N    3.402 --     3 C    1.223     6 C    0.961    59 H    0.932
                             4 O    0.195
     6   6 C    3.959 --    44 C    0.985    55 C    0.964     5 N    0.961
                            60 H    0.932
     7   6 C    3.946 --     9 O    1.755     1 N    1.216     8 C    0.899
     8   6 C    3.960 --    10 N    0.983    11 C    0.965    61 H    0.957
                             7 C    0.899
     9   8 O    2.060 --     7 C    1.755     1 N    0.172
    10   7 N    3.382 --    12 C    1.192     8 C    0.983    62 H    0.933
                            15 O    0.188
    11   6 C    3.991 --    13 C    0.975    63 H    0.969     8 C    0.965
                            64 H    0.958
    12   6 C    3.943 --    15 O    1.756    10 N    1.192    14 C    0.915
    13   6 C    3.945 --    16 O    1.784    17 N    1.155    11 C    0.975
    14   6 C    3.972 --    18 N    1.013    19 C    0.957    65 H    0.947
                            12 C    0.915
    15   8 O    2.080 --    12 C    1.756    10 N    0.188
    16   8 O    2.064 --    13 C    1.784    17 N    0.173
    17   7 N    3.251 --    13 C    1.155    66 H    0.947    67 H    0.944
                            16 O    0.173
    18   7 N    3.481 --    20 C    1.289    14 C    1.013    68 H    0.905
                            23 O    0.201
    19   6 C    3.987 --    21 C    0.990    70 H    0.969    69 H    0.965
                            14 C    0.957
    20   6 C    3.957 --    23 O    1.665    18 N    1.289    22 C    0.929
    21   6 C    3.996 --    24 C    1.008    25 C    1.004    19 C    0.990
                            71 H    0.971
    22   6 C    3.961 --    27 C    1.003    26 N    0.959    72 H    0.933
                            20 C    0.929
    23   8 O    2.003 --    20 C    1.665    18 N    0.201
    24   6 C    3.993 --    21 C    1.008    74 H    0.985    75 H    0.984
                            73 H    0.980
    25   6 C    3.990 --    21 C    1.004    76 H    0.987    77 H    0.984
                            78 H    0.980
    26   7 N    3.424 --    28 C    1.266    22 C    0.959    79 H    0.928
                            31 O    0.189
    27   6 C    3.984 --    22 C    1.003    81 H    0.974    80 H    0.972
                            29 C    0.953
    28   6 C    3.943 --    31 O    1.740    26 N    1.266    30 C    0.856
    29   6 C    3.987 --    32 C    0.981    83 H    0.976    82 H    0.972
                            27 C    0.953
    30   6 C    3.954 --    33 N    1.004    34 C    0.973    84 H    0.956
                            28 C    0.856
    31   8 O    2.062 --    28 C    1.740    26 N    0.189
    32   6 C    3.938 --    35 O    1.656    36 N    1.272    29 C    0.981
    33   7 N    3.459 --    37 C    1.263    30 C    1.004    85 H    0.916
                            41 O    0.194
    34   6 C    3.961 --    38 O    1.002    39 C    0.974    30 C    0.973
                            86 H    0.971
    35   8 O    1.963 --    32 C    1.656    36 N    0.186
    36   7 N    3.369 --    32 C    1.272    88 H    0.945    87 H    0.931
                            35 O    0.186
    37   6 C    3.957 --    41 O    1.703    33 N    1.263    40 C    0.914
    38   8 O    1.966 --    34 C    1.002    89 H    0.869
    39   6 C    3.990 --    91 H    0.988    92 H    0.986    90 H    0.985
                            34 C    0.974
    40   6 C    3.952 --    42 N    0.987    43 C    0.960    93 H    0.956
                            37 C    0.914
    41   8 O    2.030 --    37 C    1.703    33 N    0.194
    42   7 N    3.444 --    44 C    1.240    40 C    0.987    94 H    0.942
                            46 O    0.195
    43   6 C    3.989 --    45 C    0.991    96 H    0.978    95 H    0.977
                            40 C    0.960
    44   6 C    3.953 --    46 O    1.648    42 N    1.240     6 C    0.985
    45   6 C    3.994 --    43 C    0.991    97 H    0.975    47 C    0.973
                            98 H    0.950
    46   8 O    1.985 --    44 C    1.648    42 N    0.195
    47   6 C    3.944 --    48 O    1.672    49 N    1.265    45 C    0.973
    48   8 O    1.961 --    47 C    1.672    49 N    0.181
    49   7 N    3.354 --    47 C    1.265    99 H    0.937   100 H    0.936
                            48 O    0.181
    50   6 C    3.984 --    51 C    1.009     2 C    0.975   102 H    0.973
                           101 H    0.969
    51   6 C    3.985 --    50 C    1.009    52 C    0.984   103 H    0.948
                           104 H    0.948
    52   6 C    3.933 --    53 O    1.770    54 N    1.138    51 C    0.984
    53   8 O    2.044 --    52 C    1.770    54 N    0.159
    54   7 N    3.231 --    52 C    1.138   105 H    0.952   106 H    0.944
                            53 O    0.159
    55   6 C    3.963 --    56 O    1.016   108 H    0.966   107 H    0.965
                             6 C    0.964
    56   8 O    1.963 --    55 C    1.016   109 H    0.883
    57   1 H    0.962 --     1 N    0.923
    58   1 H    0.991 --     2 C    0.951
    59   1 H    0.970 --     5 N    0.932
    60   1 H    0.987 --     6 C    0.932
    61   1 H    0.991 --     8 C    0.957
    62   1 H    0.967 --    10 N    0.933
    63   1 H    0.993 --    11 C    0.969
    64   1 H    0.998 --    11 C    0.958
    65   1 H    0.994 --    14 C    0.947
    66   1 H    0.967 --    17 N    0.947
    67   1 H    0.962 --    17 N    0.944
    68   1 H    0.953 --    18 N    0.905
    69   1 H    0.996 --    19 C    0.965
    70   1 H    0.998 --    19 C    0.969
    71   1 H    0.999 --    21 C    0.971
    72   1 H    0.990 --    22 C    0.933
    73   1 H    0.999 --    24 C    0.980
    74   1 H    0.998 --    24 C    0.985
    75   1 H    0.998 --    24 C    0.984
    76   1 H    0.999 --    25 C    0.987
    77   1 H    0.999 --    25 C    0.984
    78   1 H    0.999 --    25 C    0.980
    79   1 H    0.965 --    26 N    0.928
    80   1 H    0.996 --    27 C    0.972
    81   1 H    0.997 --    27 C    0.974
    82   1 H    0.997 --    29 C    0.972
    83   1 H    0.995 --    29 C    0.976
    84   1 H    0.992 --    30 C    0.956
    85   1 H    0.959 --    33 N    0.916
    86   1 H    0.998 --    34 C    0.971
    87   1 H    0.955 --    36 N    0.931
    88   1 H    0.963 --    36 N    0.945
    89   1 H    0.895 --    38 O    0.869
    90   1 H    0.998 --    39 C    0.985
    91   1 H    0.997 --    39 C    0.988
    92   1 H    0.997 --    39 C    0.986
    93   1 H    0.996 --    40 C    0.956
    94   1 H    0.967 --    42 N    0.942
    95   1 H    0.995 --    43 C    0.977
    96   1 H    0.998 --    43 C    0.978
    97   1 H    0.997 --    45 C    0.975
    98   1 H    0.990 --    45 C    0.950
    99   1 H    0.958 --    49 N    0.937
   100   1 H    0.960 --    49 N    0.936
   101   1 H    0.992 --    50 C    0.969
   102   1 H    0.996 --    50 C    0.973
   103   1 H    0.996 --    51 C    0.948
   104   1 H    0.995 --    51 C    0.948
   105   1 H    0.971 --    54 N    0.952
   106   1 H    0.962 --    54 N    0.944
   107   1 H    0.996 --    55 C    0.965
   108   1 H    0.999 --    55 C    0.966
   109   1 H    0.903 --    56 O    0.883
 ---------------------------------------------------------------------------

Topologies differ in total number of bonds
Writing topology from bond orders to xtbtopo.mol

molecular dipole:
                 x           y           z       tot (Debye)
 q only:       -0.195      -2.228       3.260
   full:       -0.130      -2.658       4.068      12.357
molecular quadrupole (traceless):
                xx          xy          yy          xz          yz          zz
 q only:       40.583      14.462       1.825      15.457       2.238     -42.408
  q+dip:       56.378      16.848       3.109      20.830       4.881     -59.487
   full:       55.989      16.100       1.897      20.373       5.600     -57.886


           -------------------------------------------------
          | TOTAL ENERGY             -180.518750674814 Eh   |
          | GRADIENT NORM               0.391096449287 Eh/α |
          | HOMO-LUMO GAP               3.214168524534 eV   |
           -------------------------------------------------

------------------------------------------------------------------------
 * finished run on 2026/05/23 at 12:47:15.288     
------------------------------------------------------------------------
 total:
 * wall-time:     0 d,  0 h,  0 min, 14.671 sec
 *  cpu-time:     0 d,  0 h,  0 min, 19.414 sec
 * ratio c/w:     1.323 speedup
 SCF:
 * wall-time:     0 d,  0 h,  0 min, 13.805 sec
 *  cpu-time:     0 d,  0 h,  0 min, 18.406 sec
 * ratio c/w:     1.333 speedup

normal termination of xtb
