      -----------------------------------------------------------      
     |                   =====================                   |     
     |                           x T B                           |     
     |                   =====================                   |     
     |                         S. Grimme                         |     
     |          Mulliken Center for Theoretical Chemistry        |     
     |                    University of Bonn                     |     
      -----------------------------------------------------------      

   * xtb version 6.7.1 (26dd68d) compiled by 'froitzheim@fs7' on 2026-05-14

   xtb is free software: you can redistribute it and/or modify it under
   the terms of the GNU Lesser General Public License as published by
   the Free Software Foundation, either version 3 of the License, or
   (at your option) any later version.
   
   xtb is distributed in the hope that it will be useful,
   but WITHOUT ANY WARRANTY; without even the implied warranty of
   MERCHANTABILITY or FITNESS FOR A PARTICULAR PURPOSE.  See the
   GNU Lesser General Public License for more details.
   
   Cite this work as:
   * C. Bannwarth, E. Caldeweyher, S. Ehlert, A. Hansen, P. Pracht,
     J. Seibert, S. Spicher, S. Grimme, WIREs Comput. Mol. Sci., 2020, 11,
     e01493. DOI: 10.1002/wcms.1493
   
   for g-xTB:
   * T. Froitzheim, M. Müller, A. Hansen, S. Grimme, ChemRxiv, 2025, preprint.
     DOI: 10.26434/chemrxiv-2025-bjxv
   for GFN2-xTB:
   * C. Bannwarth, S. Ehlert and S. Grimme., J. Chem. Theory Comput., 2019,
     15, 1652-1671. DOI: 10.1021/acs.jctc.8b01176
   for GFN1-xTB:
   * S. Grimme, C. Bannwarth, P. Shushkov, J. Chem. Theory Comput., 2017,
     13, 1989-2009. DOI: 10.1021/acs.jctc.7b00118
   for GFN0-xTB:
   * P. Pracht, E. Caldeweyher, S. Ehlert, S. Grimme, ChemRxiv, 2019, preprint.
     DOI: 10.26434/chemrxiv.8326202.v1
   for GFN-FF:
   * S. Spicher and S. Grimme, Angew. Chem. Int. Ed., 2020, 59, 15665-15673.
     DOI: 10.1002/anie.202004239
   
   for ALPB and GBSA implicit solvation:
   * S. Ehlert, M. Stahn, S. Spicher, S. Grimme, J. Chem. Theory Comput.,
     2021, 17, 4250-4261. DOI: 10.1021/acs.jctc.1c00471
   
   for ddCOSMO and CPCM-X implicit solvation:
   * M. Stahn, S. Ehlert, S. Grimme, J. Phys. Chem. A,
     2023, XX, XXXX-XXXX. DOI: 10.1021/acs.jpca.3c04382
   
   for DFT-D4:
   * E. Caldeweyher, C. Bannwarth and S. Grimme, J. Chem. Phys., 2017,
     147, 034112. DOI: 10.1063/1.4993215
   * E. Caldeweyher, S. Ehlert, A. Hansen, H. Neugebauer, S. Spicher,
     C. Bannwarth and S. Grimme, J. Chem. Phys., 2019, 150, 154122.
     DOI: 10.1063/1.5090222
   * E. Caldeweyher, J.-M. Mewes, S. Ehlert and S. Grimme, Phys. Chem. Chem. Phys.
     2020, 22, 8499-8512. DOI: 10.1039/D0CP00502A
   
   for sTDA-xTB:
   * S. Grimme and C. Bannwarth, J. Chem. Phys., 2016, 145, 054103.
     DOI: 10.1063/1.4959605
   
   in the mass-spec context:
   * V. Asgeirsson, C. Bauer and S. Grimme, Chem. Sci., 2017, 8, 4879.
     DOI: 10.1039/c7sc00601b
   * J. Koopman and S. Grimme, ACS Omega 2019, 4, 12, 15120-15133.
     DOI: 10.1021/acsomega.9b02011
   
   for metadynamics refer to:
   * S. Grimme, J. Chem. Theory Comput., 2019, 155, 2847-2862
     DOI: 10.1021/acs.jctc.9b00143
   
   for SPH calculations refer to:
   * S. Spicher and S. Grimme, J. Chem. Theory Comput., 2021, 17, 1701-1714
     DOI: 10.1021/acs.jctc.0c01306
   
   for ONIOM refer to:
   * C. Plett, A. Katbashev, S. Ehlert, S. Grimme, M. Bursch,
     Phys. Chem. Chem. Phys., 2023, 25, 17860-17868. DOI: 10.1039/D3CP02178E
   
   for DIPRO refer to:
   * J. Kohn, N. Gildemeister, S. Grimme, D. Fazzi, A. Hansen,
     J. Chem. Phys. 159, 144106 (2023). DOI: 10.1063/5.0167484
   
   for PTB refer to:
   * S. Grimme, M. Mueller, A. Hansen, J. Chem. Phys., 2023, 158, 124111.
     DOI: 10.1063/5.0137838
   
   with help from (in alphabetical order)
   P. Atkinson, C. Bannwarth, F. Bohle, G. Brandenburg, E. Caldeweyher,
   M. Checinski, S. Dohm, S. Ehlert, S. Ehrlich, M. Friede, T. Froitzheim,
   I. Gerasimov, C. Hölzer, A. Katbashev, J. Kohn, J. Koopman, C. Lavigne,
   S. Lehtola, F. März, M. Müller, F. Musil, H. Neugebauer, J. Pisarek,
   C. Plett, P. Pracht, F. Pultar, J. Seibert, P. Shushkov, S. Spicher,
   M. Stahn, M. Steiner, T. Strunk, J. Stückrath, T. Rose, and J. Unsleber
   
 * started run on 2026/05/23 at 08:14:13.864     
   ID    Z sym.   atoms
    1    7 N      1, 5, 10, 17, 23, 28, 35
    2    6 C      2, 3, 6-8, 11-14, 16, 20, 21, 24-26, 29, 31-34, 36-40
    3    8 O      4, 9, 15, 18, 19, 22, 27, 30
    4    1 H      41-70

           -------------------------------------------------
          |                Calculation Setup                |
           -------------------------------------------------

          program call               : /home/xchen/software/xtb-6.7.1-gxtb/bin/xtb /home/xchen/Test/benchmark/md_sampled/01_6_0109_n1/snap_0042.xyz --charge -1 --gxtb --norestart
          coordinate file            : /home/xchen/Test/benchmark/md_sampled/01_6_0109_n1/snap_0042.xyz
          omp threads                :                    48

core increment energy         -1.7791297691186E+03 Eh
dispersion energy              1.0051963569558E-02 Eh
molecular charge              -1.0000000000000E+00 e
number of electrons            2.1399999999800E+02 e
number of unpaired electrons   0.0000000000000E+00 e
wavefunction                   restricted
integral cutoff                2.6907767250513E+01 bohr
energy convergence             1.0000000000000E-06 Eh
density convergence            2.0000000000000E-05 e

------------------------------------------------------------
  cycle        total energy    energy error   density error
------------------------------------------------------------
      1     -1954.973732233  -1.7585402E+02   0.0000000E+00
      2     -1955.311830199  -3.3809797E-01   2.5682493E-02
      3     -1955.525544579  -2.1371438E-01   2.0220765E-02
      4     -1955.970752507  -4.4520793E-01   1.5992827E-02
      5     -1955.978518783  -7.7662766E-03   1.2241192E-03
      6     -1955.978995133  -4.7635020E-04   2.0094474E-04
      7     -1955.979036745  -4.1611726E-05   6.9280249E-05
      8     -1955.979039735  -2.9898043E-06   1.5501576E-05
      9     -1955.979040159  -4.2456776E-07   4.8912912E-06
------------------------------------------------------------

electronic energy             -1.7685932300440E+02 Eh
total energy                  -1.9559790401594E+03 Eh

Post processing:
 | Mayer-Wiberg bond orders
 | Molecular Multipole Moments

 total:                                   9.703 sec
 - increment                              0.000 sec (  0%)
 - repulsion                              0.011 sec (  0%)
 - dispersion                             0.233 sec (  2%)
 - coulomb                                0.104 sec (  1%)
 - exchange                               0.005 sec (  0%)
 - hamiltonian                            0.639 sec (  6%)
 - acp                                    0.268 sec (  2%)
 - spin polarization                      0.000 sec (  0%)
 - post processing                        0.130 sec (  1%)
 - scc                                    7.666 sec ( 79%)
 - coulomb gradient                       0.101 sec (  1%)
 - dispersion gradient                    0.024 sec (  0%)
 - exchange gradient                      0.116 sec (  1%)
 - repulsion gradient                     0.005 sec (  0%)
 - acp gradient                           0.266 sec (  2%)
 - hamiltonian gradient                   0.260 sec (  2%)
 - gradient                               0.772 sec (  7%)

         :::::::::::::::::::::::::::::::::::::::::::::::::::::
         ::                     SUMMARY                     ::
         :::::::::::::::::::::::::::::::::::::::::::::::::::::
         :: total energy           -1955.979040159431 Eh    ::
         :: gradient norm              0.332506318209 Eh/a0 ::
         :: HOMO-LUMO gap              5.861962880729 eV    ::
         ::.................................................::
         :: add. restraining           0.000000000000 Eh    ::
         :: total charge              -1.000000000000 e     ::
         :::::::::::::::::::::::::::::::::::::::::::::::::::::

           -------------------------------------------------
          |                Property Printout                |
           -------------------------------------------------

    * Orbital Energies and Occupations
------------------------------------------------------------------
      #    Occupation            Energy/Eh            Energy/eV
------------------------------------------------------------------
      1        2.0000           -1.2744187             -34.6787
    ...           ...                  ...                  ...
     95        2.0000           -0.3067640              -8.3475
     96        2.0000           -0.2969024              -8.0791
     97        2.0000           -0.2956507              -8.0451
     98        2.0000           -0.2945072              -8.0139
     99        2.0000           -0.2907550              -7.9118
    100        2.0000           -0.2886281              -7.8540
    101        2.0000           -0.2840035              -7.7281
    102        2.0000           -0.2811059              -7.6493
    103        2.0000           -0.2707751              -7.3682
    104        2.0000           -0.2514255              -6.8416
    105        2.0000           -0.1943545              -5.2887
    106        2.0000           -0.1787723              -4.8646
    107        2.0000           -0.1595963              -4.3428 (HOMO)
    108                          0.0558268               1.5191 (LUMO)
    109                          0.0734633               1.9990
    110                          0.0805817               2.1927
    111                          0.0849887               2.3127
    112                          0.0876364               2.3847
    113                          0.1035729               2.8184
    114                          0.1095303               2.9805
    115                          0.1225902               3.3358
    116                          0.1330097               3.6194
    117                          0.2182098               5.9378
    118                          0.2261265               6.1532
    ...                                ...                  ...
    190                          0.9869846              26.8572
------------------------------------------------------------------
               HL-Gap            0.2154232 Eh            5.8620 eV
------------------------------------------------------------------

Atomic charges and shell populations (in atomic units):
------------------------------------------------------
     #    Z                q          p(s)       p(p)
------------------------------------------------------
     1    7 N      -0.303062      1.346877   3.956185
     2    6 C      -0.067471      1.132381   2.935090
     3    6 C       0.416371      1.106709   2.476921
     4    8 O      -0.535740      1.854028   4.681712
     5    7 N      -0.359813      1.371385   3.988428
     6    6 C       0.006704      1.136731   2.856564
     7    6 C       0.398034      1.099459   2.502508
     8    6 C       0.023318      1.119679   2.857003
     9    8 O      -0.574224      1.859252   4.714972
    10    7 N      -0.287101      1.364189   3.922912
    11    6 C      -0.204264      1.131366   3.072897
    12    6 C       0.383163      1.094611   2.522226
    13    6 C      -0.227131      1.184777   3.042354
    14    6 C      -0.055760      1.136569   2.919192
    15    8 O      -0.568560      1.861064   4.707496
    16    6 C       0.525443      1.071285   2.403272
    17    7 N      -0.278236      1.345289   3.932947
    18    8 O      -0.685869      1.855918   4.829952
    19    8 O      -0.671553      1.849853   4.821700
    20    6 C       0.394361      1.097610   2.508030
    21    6 C      -0.033088      1.109221   2.923867
    22    8 O      -0.566887      1.854241   4.712646
    23    7 N      -0.314706      1.344306   3.970400
    24    6 C      -0.262334      1.159607   3.102727
    25    6 C       0.413792      1.090037   2.496171
    26    6 C      -0.088444      1.123705   2.964739
    27    8 O      -0.557292      1.856825   4.700466
    28    7 N      -0.334827      1.398745   3.936082
    29    6 C       0.425707      1.109435   2.464858
    30    8 O      -0.551633      1.858160   4.693472
    31    6 C      -0.133309      1.144326   2.988983
    32    6 C      -0.073948      1.129116   2.944832
    33    6 C      -0.010081      1.143464   2.866617
    34    6 C      -0.035859      1.126019   2.909839
    35    7 N      -0.270623      1.372253   3.898370
    36    6 C       0.051129      1.103270   2.845601
    37    6 C      -0.111866      1.146510   2.965356
    38    6 C      -0.100601      1.144079   2.956521
    39    6 C      -0.129765      1.150287   2.979478
    40    6 C      -0.120386      1.139452   2.980935
    41    1 H       0.270651      0.729349
    42    1 H       0.152429      0.847571
    43    1 H       0.121509      0.878491
    44    1 H       0.265783      0.734217
    45    1 H       0.124256      0.875744
    46    1 H       0.106923      0.893077
    47    1 H       0.275748      0.724252
    48    1 H       0.112070      0.887930
    49    1 H       0.144859      0.855141
    50    1 H       0.046975      0.953025
    51    1 H       0.084632      0.915368
    52    1 H       0.122646      0.877354
    53    1 H       0.091005      0.908995
    54    1 H       0.275620      0.724380
    55    1 H       0.131604      0.868396
    56    1 H       0.271765      0.728235
    57    1 H       0.103267      0.896733
    58    1 H       0.106989      0.893011
    59    1 H       0.111081      0.888919
    60    1 H       0.131110      0.868890
    61    1 H       0.123417      0.876583
    62    1 H       0.296772      0.703228
    63    1 H       0.102330      0.897670
    64    1 H       0.137364      0.862636
    65    1 H       0.118565      0.881435
    66    1 H       0.266577      0.733423
    67    1 H       0.105339      0.894661
    68    1 H       0.074858      0.925142
    69    1 H       0.101775      0.898225
    70    1 H       0.098492      0.901508
------------------------------------------------------


Wiberg/Mayer (AO) data.
largest (>0.10) Wiberg bond orders for each atom

 ---------------------------------------------------------------------------
     #   Z sym  total        # sym  WBO       # sym  WBO       # sym  WBO
 ---------------------------------------------------------------------------
     1   7 N    3.368 --     7 C    1.285     2 C    0.963    41 O    0.890
                             9 C    0.160
     2   6 C    3.914 --     1 N    0.963    43 O    0.954    42 O    0.944
                             3 C    0.940
     3   6 C    3.865 --     4 C    1.650     5 N    1.211     2 C    0.940
     4   8 C    1.946 --     3 C    1.650     5 N    0.163
     5   7 N    3.315 --     3 C    1.211     6 C    0.945    44 O    0.903
                             4 C    0.163
     6   6 C    3.924 --    31 C    0.990    45 O    0.949     5 N    0.945
                            29 C    0.901
     7   6 C    3.876 --     9 C    1.597     1 N    1.285     8 C    0.926
     8   6 C    3.922 --    11 C    0.990    10 N    0.940    46 O    0.936
                             7 C    0.926
     9   8 C    1.871 --     7 C    1.597     1 N    0.160
    10   7 N    3.398 --    12 C    1.320     8 C    0.940    47 O    0.882
                            15 C    0.175
    11   6 C    3.948 --    13 C    1.003     8 C    0.990    48 O    0.953
                            49 O    0.940
    12   6 C    3.895 --    15 C    1.584    10 N    1.320    14 C    0.941
    13   6 C    3.941 --    11 C    1.003    51 O    0.967    50 O    0.961
                            16 C    0.861
    14   6 C    3.917 --    17 N    0.974    53 O    0.949    52 O    0.942
                            12 C    0.941
    15   8 C    1.870 --    12 C    1.584    10 N    0.175
    16   6 C    3.867 --    19 C    1.510    18 C    1.479    13 C    0.861
    17   7 N    3.404 --    20 C    1.297    14 C    0.974    54 O    0.880
                            22 C    0.173
    18   8 C    1.762 --    16 C    1.479    19 C    0.202
    19   8 C    1.799 --    16 C    1.510    18 C    0.202
    20   6 C    3.887 --    22 C    1.608    17 N    1.297    21 C    0.905
    21   6 C    3.934 --    24 C    1.010    23 N    0.975    55 O    0.925
                            20 C    0.905
    22   8 C    1.895 --    20 C    1.608    17 N    0.173
    23   7 N    3.358 --    25 C    1.240    21 C    0.975    56 O    0.890
                            27 C    0.162
    24   6 C    3.954 --    21 C    1.010    58 O    0.970    57 O    0.969
                            59 O    0.965
    25   6 C    3.884 --    27 C    1.613    23 N    1.240    26 C    0.967
    26   6 C    3.938 --    28 N    0.984    25 C    0.967    60 O    0.943
                            61 O    0.942
    27   8 C    1.906 --    25 C    1.613    23 N    0.162
    28   7 N    3.268 --    29 C    1.210    26 C    0.984    62 O    0.860
                            30 C    0.136
    29   6 C    3.860 --    30 C    1.659    28 N    1.210     6 C    0.901
    30   8 C    1.917 --    29 C    1.659    28 N    0.136
    31   6 C    3.953 --     6 C    0.990    32 C    0.987    63 O    0.953
                            64 O    0.945
    32   6 C    3.959 --    33 C    1.645    34 C    1.147    31 C    0.987
    33   6 C    3.919 --    32 C    1.645    35 N    1.136    65 O    0.946
    34   6 C    3.973 --    37 C    1.377    36 C    1.239    32 C    1.147
    35   7 N    3.383 --    36 C    1.140    33 C    1.136    66 O    0.890
    36   6 C    3.949 --    38 C    1.367    34 C    1.239    35 N    1.140
    37   6 C    3.966 --    39 C    1.451    34 C    1.377    67 O    0.948
                            38 C    0.110
    38   6 C    3.962 --    40 C    1.464    36 C    1.367    68 O    0.949
                            37 C    0.110
    39   6 C    3.965 --    37 C    1.451    40 C    1.401    69 O    0.956
    40   6 C    3.972 --    38 C    1.464    39 C    1.401    70 O    0.955
    41   1 O    0.927 --     1 N    0.890
    42   1 O    0.977 --     2 C    0.944
    43   1 O    0.985 --     2 C    0.954
    44   1 O    0.929 --     5 N    0.903
    45   1 O    0.985 --     6 C    0.949
    46   1 O    0.989 --     8 C    0.936
    47   1 O    0.924 --    10 N    0.882
    48   1 O    0.987 --    11 C    0.953
    49   1 O    0.979 --    11 C    0.940
    50   1 O    0.998 --    13 C    0.961
    51   1 O    0.993 --    13 C    0.967
    52   1 O    0.985 --    14 C    0.942
    53   1 O    0.992 --    14 C    0.949
    54   1 O    0.924 --    17 N    0.880
    55   1 O    0.983 --    21 C    0.925
    56   1 O    0.926 --    23 N    0.890
    57   1 O    0.989 --    24 C    0.969
    58   1 O    0.989 --    24 C    0.970
    59   1 O    0.988 --    24 C    0.965
    60   1 O    0.983 --    26 C    0.943
    61   1 O    0.985 --    26 C    0.942
    62   1 O    0.912 --    28 N    0.860
    63   1 O    0.990 --    31 C    0.953
    64   1 O    0.981 --    31 C    0.945
    65   1 O    0.986 --    33 C    0.946
    66   1 O    0.929 --    35 N    0.890
    67   1 O    0.989 --    37 C    0.948
    68   1 O    0.994 --    38 C    0.949
    69   1 O    0.990 --    39 C    0.956
    70   1 O    0.990 --    40 C    0.955
 ---------------------------------------------------------------------------

Topologies differ in total number of bonds
Writing topology from bond orders to xtbtopo.mol

Atomic dipole moments (in atomic units):
---------------------------------------------------------
     #    Z                 x            y            z
---------------------------------------------------------
           total     4.837834    10.101525     9.096357
---------------------------------------------------------
         |total|    14.428761    36.674253 Debye


           -------------------------------------------------
          | TOTAL ENERGY            -1955.979040159431 Eh   |
          | GRADIENT NORM               0.332506318209 Eh/α |
           -------------------------------------------------

------------------------------------------------------------------------
 * finished run on 2026/05/23 at 08:14:24.387     
------------------------------------------------------------------------
 total:
 * wall-time:     0 d,  0 h,  0 min, 10.522 sec
 *  cpu-time:     0 d,  0 h,  0 min, 20.301 sec
 * ratio c/w:     1.929 speedup
 SCF:
 * wall-time:     0 d,  0 h,  0 min, 10.123 sec
 *  cpu-time:     0 d,  0 h,  0 min, 20.035 sec
 * ratio c/w:     1.979 speedup

normal termination of xtb
