      -----------------------------------------------------------      
     |                   =====================                   |     
     |                           x T B                           |     
     |                   =====================                   |     
     |                         S. Grimme                         |     
     |          Mulliken Center for Theoretical Chemistry        |     
     |                    University of Bonn                     |     
      -----------------------------------------------------------      

   * xtb version 6.7.1 (26dd68d) compiled by 'froitzheim@fs7' on 2026-05-14

   xtb is free software: you can redistribute it and/or modify it under
   the terms of the GNU Lesser General Public License as published by
   the Free Software Foundation, either version 3 of the License, or
   (at your option) any later version.
   
   xtb is distributed in the hope that it will be useful,
   but WITHOUT ANY WARRANTY; without even the implied warranty of
   MERCHANTABILITY or FITNESS FOR A PARTICULAR PURPOSE.  See the
   GNU Lesser General Public License for more details.
   
   Cite this work as:
   * C. Bannwarth, E. Caldeweyher, S. Ehlert, A. Hansen, P. Pracht,
     J. Seibert, S. Spicher, S. Grimme, WIREs Comput. Mol. Sci., 2020, 11,
     e01493. DOI: 10.1002/wcms.1493
   
   for g-xTB:
   * T. Froitzheim, M. Müller, A. Hansen, S. Grimme, ChemRxiv, 2025, preprint.
     DOI: 10.26434/chemrxiv-2025-bjxv
   for GFN2-xTB:
   * C. Bannwarth, S. Ehlert and S. Grimme., J. Chem. Theory Comput., 2019,
     15, 1652-1671. DOI: 10.1021/acs.jctc.8b01176
   for GFN1-xTB:
   * S. Grimme, C. Bannwarth, P. Shushkov, J. Chem. Theory Comput., 2017,
     13, 1989-2009. DOI: 10.1021/acs.jctc.7b00118
   for GFN0-xTB:
   * P. Pracht, E. Caldeweyher, S. Ehlert, S. Grimme, ChemRxiv, 2019, preprint.
     DOI: 10.26434/chemrxiv.8326202.v1
   for GFN-FF:
   * S. Spicher and S. Grimme, Angew. Chem. Int. Ed., 2020, 59, 15665-15673.
     DOI: 10.1002/anie.202004239
   
   for ALPB and GBSA implicit solvation:
   * S. Ehlert, M. Stahn, S. Spicher, S. Grimme, J. Chem. Theory Comput.,
     2021, 17, 4250-4261. DOI: 10.1021/acs.jctc.1c00471
   
   for ddCOSMO and CPCM-X implicit solvation:
   * M. Stahn, S. Ehlert, S. Grimme, J. Phys. Chem. A,
     2023, XX, XXXX-XXXX. DOI: 10.1021/acs.jpca.3c04382
   
   for DFT-D4:
   * E. Caldeweyher, C. Bannwarth and S. Grimme, J. Chem. Phys., 2017,
     147, 034112. DOI: 10.1063/1.4993215
   * E. Caldeweyher, S. Ehlert, A. Hansen, H. Neugebauer, S. Spicher,
     C. Bannwarth and S. Grimme, J. Chem. Phys., 2019, 150, 154122.
     DOI: 10.1063/1.5090222
   * E. Caldeweyher, J.-M. Mewes, S. Ehlert and S. Grimme, Phys. Chem. Chem. Phys.
     2020, 22, 8499-8512. DOI: 10.1039/D0CP00502A
   
   for sTDA-xTB:
   * S. Grimme and C. Bannwarth, J. Chem. Phys., 2016, 145, 054103.
     DOI: 10.1063/1.4959605
   
   in the mass-spec context:
   * V. Asgeirsson, C. Bauer and S. Grimme, Chem. Sci., 2017, 8, 4879.
     DOI: 10.1039/c7sc00601b
   * J. Koopman and S. Grimme, ACS Omega 2019, 4, 12, 15120-15133.
     DOI: 10.1021/acsomega.9b02011
   
   for metadynamics refer to:
   * S. Grimme, J. Chem. Theory Comput., 2019, 155, 2847-2862
     DOI: 10.1021/acs.jctc.9b00143
   
   for SPH calculations refer to:
   * S. Spicher and S. Grimme, J. Chem. Theory Comput., 2021, 17, 1701-1714
     DOI: 10.1021/acs.jctc.0c01306
   
   for ONIOM refer to:
   * C. Plett, A. Katbashev, S. Ehlert, S. Grimme, M. Bursch,
     Phys. Chem. Chem. Phys., 2023, 25, 17860-17868. DOI: 10.1039/D3CP02178E
   
   for DIPRO refer to:
   * J. Kohn, N. Gildemeister, S. Grimme, D. Fazzi, A. Hansen,
     J. Chem. Phys. 159, 144106 (2023). DOI: 10.1063/5.0167484
   
   for PTB refer to:
   * S. Grimme, M. Mueller, A. Hansen, J. Chem. Phys., 2023, 158, 124111.
     DOI: 10.1063/5.0137838
   
   with help from (in alphabetical order)
   P. Atkinson, C. Bannwarth, F. Bohle, G. Brandenburg, E. Caldeweyher,
   M. Checinski, S. Dohm, S. Ehlert, S. Ehrlich, M. Friede, T. Froitzheim,
   I. Gerasimov, C. Hölzer, A. Katbashev, J. Kohn, J. Koopman, C. Lavigne,
   S. Lehtola, F. März, M. Müller, F. Musil, H. Neugebauer, J. Pisarek,
   C. Plett, P. Pracht, F. Pultar, J. Seibert, P. Shushkov, S. Spicher,
   M. Stahn, M. Steiner, T. Strunk, J. Stückrath, T. Rose, and J. Unsleber
   
 * started run on 2026/05/23 at 12:39:12.842     
   ID    Z sym.   atoms
    1    7 N      1, 5, 10, 18, 28, 30, 37-39, 41, 47, 48, 56
    2    6 C      2, 3, 6-8, 11-14, 16, 17, 19-25, 27, 29, 31-34, 36, 40,
                  42-45, 49, 51-55
    3    8 O      4, 9, 15, 26, 35, 46, 50
    4    1 H      57-115

           -------------------------------------------------
          |                Calculation Setup                |
           -------------------------------------------------

          program call               : /home/xchen/software/xtb-6.7.1-gxtb/bin/xtb /home/xchen/Test/benchmark/md_sampled/03_6_0978_0/snap_0075.xyz --charge 0 --gxtb --norestart
          coordinate file            : /home/xchen/Test/benchmark/md_sampled/03_6_0978_0/snap_0075.xyz
          omp threads                :                    48

core increment energy         -2.3949795228626E+03 Eh
dispersion energy              2.4212769244421E-02 Eh
molecular charge               0.0000000000000E+00 e
number of electrons            3.0999999999720E+02 e
number of unpaired electrons   0.0000000000000E+00 e
wavefunction                   restricted
integral cutoff                2.6907767250513E+01 bohr
energy convergence             1.0000000000000E-06 Eh
density convergence            2.0000000000000E-05 e

------------------------------------------------------------
  cycle        total energy    energy error   density error
------------------------------------------------------------
      1     -2644.444201894  -2.4948889E+02   0.0000000E+00
      2     -2644.850719872  -4.0651798E-01   1.8534838E-02
      3     -2645.110527446  -2.5980757E-01   1.4696080E-02
      4     -2645.672589479  -5.6206203E-01   1.1706668E-02
      5     -2645.682897440  -1.0307961E-02   9.0741422E-04
      6     -2645.683797802  -9.0036228E-04   1.7321999E-04
      7     -2645.683884393  -8.6590678E-05   5.7377261E-05
      8     -2645.683889230  -4.8367214E-06   1.4281263E-05
      9     -2645.683889932  -7.0234137E-07   3.7150846E-06
------------------------------------------------------------

electronic energy             -2.5072857983886E+02 Eh
total energy                  -2.6456838899322E+03 Eh

Post processing:
 | Mayer-Wiberg bond orders
 | Molecular Multipole Moments

 total:                                  42.439 sec
 - increment                              0.000 sec (  0%)
 - repulsion                              0.007 sec (  0%)
 - dispersion                             0.952 sec (  2%)
 - coulomb                                0.515 sec (  1%)
 - exchange                               0.009 sec (  0%)
 - hamiltonian                           26.292 sec ( 61%)
 - acp                                    0.292 sec (  0%)
 - spin polarization                      0.000 sec (  0%)
 - post processing                        0.126 sec (  0%)
 - scc                                   13.009 sec ( 30%)
 - coulomb gradient                       0.105 sec (  0%)
 - dispersion gradient                    0.056 sec (  0%)
 - exchange gradient                      0.133 sec (  0%)
 - repulsion gradient                     0.007 sec (  0%)
 - acp gradient                           0.424 sec (  0%)
 - hamiltonian gradient                   0.586 sec (  1%)
 - gradient                               1.311 sec (  3%)

         :::::::::::::::::::::::::::::::::::::::::::::::::::::
         ::                     SUMMARY                     ::
         :::::::::::::::::::::::::::::::::::::::::::::::::::::
         :: total energy           -2645.683889932216 Eh    ::
         :: gradient norm              0.424030082747 Eh/a0 ::
         :: HOMO-LUMO gap              9.288272944827 eV    ::
         ::.................................................::
         :: add. restraining           0.000000000000 Eh    ::
         :: total charge              -0.000000000000 e     ::
         :::::::::::::::::::::::::::::::::::::::::::::::::::::

           -------------------------------------------------
          |                Property Printout                |
           -------------------------------------------------

    * Orbital Energies and Occupations
------------------------------------------------------------------
      #    Occupation            Energy/Eh            Energy/eV
------------------------------------------------------------------
      1        2.0000           -1.3493692             -36.7182
    ...           ...                  ...                  ...
    143        2.0000           -0.3747377             -10.1971
    144        2.0000           -0.3720207             -10.1232
    145        2.0000           -0.3706016             -10.0846
    146        2.0000           -0.3676097             -10.0032
    147        2.0000           -0.3669365              -9.9849
    148        2.0000           -0.3637977              -9.8994
    149        2.0000           -0.3626176              -9.8673
    150        2.0000           -0.3616404              -9.8407
    151        2.0000           -0.3611757              -9.8281
    152        2.0000           -0.3586817              -9.7602
    153        2.0000           -0.3520288              -9.5792
    154        2.0000           -0.3513426              -9.5605
    155        2.0000           -0.3468309              -9.4377 (HOMO)
    156                         -0.0054932              -0.1495 (LUMO)
    157                         -0.0035146              -0.0956
    158                         -0.0012452              -0.0339
    159                          0.0097437               0.2651
    160                          0.0160109               0.4357
    161                          0.0300392               0.8174
    162                          0.0383022               1.0423
    163                          0.0397788               1.0824
    164                          0.0538128               1.4643
    165                          0.0641156               1.7447
    166                          0.1325955               3.6081
    ...                                ...                  ...
    283                          0.9004691              24.5030
------------------------------------------------------------------
               HL-Gap            0.3413377 Eh            9.2883 eV
------------------------------------------------------------------

Atomic charges and shell populations (in atomic units):
------------------------------------------------------
     #    Z                q          p(s)       p(p)
------------------------------------------------------
     1    7 N      -0.378477      1.424083   3.954394
     2    6 C      -0.000888      1.139091   2.861798
     3    6 C       0.426426      1.096512   2.477062
     4    8 O      -0.572170      1.852740   4.719430
     5    7 N      -0.310690      1.367473   3.943217
     6    6 C       0.007207      1.130788   2.862006
     7    6 C       0.406724      1.119162   2.474114
     8    6 C      -0.005565      1.116649   2.888917
     9    8 O      -0.503689      1.860970   4.642719
    10    7 N      -0.342138      1.353851   3.988287
    11    6 C      -0.172108      1.144645   3.027464
    12    6 C       0.426255      1.092117   2.481628
    13    6 C      -0.031391      1.130049   2.901342
    14    6 C      -0.033698      1.107638   2.926060
    15    8 O      -0.537674      1.849694   4.687980
    16    6 C      -0.133711      1.161161   2.972550
    17    6 C      -0.137293      1.157921   2.979371
    18    7 N      -0.338857      1.390587   3.948270
    19    6 C      -0.172453      1.145033   3.027420
    20    6 C      -0.080073      1.150948   2.929125
    21    6 C      -0.099029      1.145461   2.953567
    22    6 C       0.409437      1.116324   2.474239
    23    6 C      -0.188520      1.141981   3.046540
    24    6 C      -0.103979      1.142798   2.961181
    25    6 C       0.029640      1.141874   2.828486
    26    8 O      -0.540606      1.852657   4.687949
    27    6 C      -0.068825      1.123682   2.945144
    28    7 N      -0.380184      1.356220   4.023965
    29    6 C      -0.186093      1.144232   3.041861
    30    7 N      -0.390015      1.447036   3.942979
    31    6 C       0.449028      1.104344   2.446628
    32    6 C      -0.167728      1.149559   3.018169
    33    6 C       0.281678      1.109032   2.609290
    34    6 C      -0.004860      1.124372   2.880488
    35    8 O      -0.486950      1.853310   4.633640
    36    6 C      -0.097608      1.145285   2.952323
    37    7 N      -0.526355      1.584788   3.941567
    38    7 N      -0.436459      1.420621   4.015838
    39    7 N      -0.246298      1.346836   3.899462
    40    6 C      -0.209110      1.142449   3.066661
    41    7 N      -0.371919      1.419761   3.952158
    42    6 C      -0.048841      1.170447   2.878394
    43    6 C       0.430239      1.091570   2.478191
    44    6 C      -0.185797      1.145589   3.040207
    45    6 C       0.256154      1.093884   2.649962
    46    8 O      -0.567448      1.856309   4.711139
    47    7 N      -0.548068      1.591095   3.956973
    48    7 N      -0.436001      1.453891   3.982109
    49    6 C       0.104021      1.124856   2.771123
    50    8 O      -0.571994      1.814532   4.757461
    51    6 C      -0.252924      1.172487   3.080437
    52    6 C      -0.165213      1.171082   2.994131
    53    6 C      -0.181009      1.152322   3.028687
    54    6 C      -0.195961      1.153680   3.042281
    55    6 C      -0.087745      1.143302   2.944444
    56    7 N      -0.506898      1.468316   4.038582
    57    1 H       0.248702      0.751298
    58    1 H       0.143873      0.856127
    59    1 H       0.281396      0.718604
    60    1 H       0.121420      0.878580
    61    1 H       0.155359      0.844641
    62    1 H       0.281892      0.718108
    63    1 H       0.099349      0.900651
    64    1 H       0.128949      0.871051
    65    1 H       0.173679      0.826321
    66    1 H       0.115366      0.884634
    67    1 H       0.107650      0.892350
    68    1 H       0.245853      0.754147
    69    1 H       0.086744      0.913256
    70    1 H       0.098368      0.901632
    71    1 H       0.111079      0.888921
    72    1 H       0.109936      0.890064
    73    1 H       0.118964      0.881036
    74    1 H       0.119814      0.880186
    75    1 H       0.120624      0.879376
    76    1 H       0.114930      0.885070
    77    1 H       0.102419      0.897581
    78    1 H       0.092363      0.907637
    79    1 H       0.271336      0.728664
    80    1 H       0.096608      0.903392
    81    1 H       0.146696      0.853304
    82    1 H       0.245621      0.754379
    83    1 H       0.116593      0.883407
    84    1 H       0.110170      0.889830
    85    1 H       0.111120      0.888880
    86    1 H       0.091989      0.908011
    87    1 H       0.102852      0.897148
    88    1 H       0.210122      0.789878
    89    1 H       0.242458      0.757542
    90    1 H       0.252933      0.747067
    91    1 H       0.117398      0.882602
    92    1 H       0.122037      0.877963
    93    1 H       0.248020      0.751980
    94    1 H       0.126812      0.873188
    95    1 H       0.106491      0.893509
    96    1 H       0.099969      0.900031
    97    1 H       0.115197      0.884803
    98    1 H       0.219381      0.780619
    99    1 H       0.231047      0.768953
   100    1 H       0.256257      0.743743
   101    1 H       0.093211      0.906789
   102    1 H       0.367641      0.632359
   103    1 H       0.092345      0.907655
   104    1 H       0.103485      0.896515
   105    1 H       0.085277      0.914723
   106    1 H       0.101513      0.898487
   107    1 H       0.111224      0.888776
   108    1 H       0.097208      0.902792
   109    1 H       0.102673      0.897327
   110    1 H       0.104253      0.895747
   111    1 H       0.117597      0.882403
   112    1 H       0.063877      0.936123
   113    1 H       0.095253      0.904747
   114    1 H       0.207187      0.792813
   115    1 H       0.213926      0.786074
------------------------------------------------------


Wiberg/Mayer (AO) data.
largest (>0.10) Wiberg bond orders for each atom

 ---------------------------------------------------------------------------
     #   Z sym  total        # sym  WBO       # sym  WBO       # sym  WBO
 ---------------------------------------------------------------------------
     1   7 N    3.215 --     7 C    1.121     2 C    0.958    57 O    0.897
                             9 C    0.141
     2   6 C    3.927 --    49 C    0.969     1 N    0.958     3 C    0.947
                            58 O    0.921
     3   6 C    3.874 --     4 C    1.591     5 N    1.261     2 C    0.947
     4   8 C    1.921 --     3 C    1.591     5 N    0.165
     5   7 N    3.361 --     3 C    1.261     6 C    0.947    59 O    0.878
                             4 C    0.165
     6   6 C    3.919 --    43 C    0.962    52 C    0.961     5 N    0.947
                            60 O    0.931
     7   6 C    3.864 --     9 C    1.712     1 N    1.121     8 C    0.957
     8   6 C    3.941 --    10 N    0.985     7 C    0.957    11 C    0.951
                            61 O    0.913
     9   8 C    1.973 --     7 C    1.712     1 N    0.141
    10   7 N    3.319 --    12 C    1.192     8 C    0.985    62 O    0.883
                            15 C    0.162
    11   6 C    3.964 --    13 C    1.027    63 O    0.956     8 C    0.951
                            64 O    0.947
    12   6 C    3.872 --    15 C    1.656    10 N    1.192    14 C    0.946
    13   6 C    3.974 --    17 C    1.388    16 C    1.384    11 C    1.027
                            24 C    0.128
    14   6 C    3.924 --    19 C    0.985    18 N    0.970    12 C    0.946
                            65 O    0.875
    15   8 C    1.953 --    12 C    1.656    10 N    0.162
    16   6 C    3.964 --    20 C    1.455    13 C    1.384    66 O    0.951
                            21 C    0.107
    17   6 C    3.958 --    21 C    1.447    13 C    1.388    67 O    0.951
                            20 C    0.117
    18   7 N    3.307 --    22 C    1.198    14 C    0.970    68 O    0.887
                            26 C    0.153
    19   6 C    3.963 --    23 C    1.009    14 C    0.985    70 O    0.957
                            69 O    0.952
    20   6 C    3.966 --    16 C    1.455    24 C    1.408    71 O    0.954
                            17 C    0.117
    21   6 C    3.969 --    17 C    1.447    24 C    1.435    72 O    0.952
                            16 C    0.107
    22   6 C    3.854 --    26 C    1.649    18 N    1.198    25 C    0.933
    23   6 C    3.961 --    19 C    1.009    27 C    0.992    74 O    0.956
                            73 O    0.949
    24   6 C    3.969 --    21 C    1.435    20 C    1.408    75 O    0.950
                            13 C    0.128
    25   6 C    3.929 --    29 C    0.983    28 N    0.946    22 C    0.933
                            76 O    0.931
    26   8 C    1.968 --    22 C    1.649    18 N    0.153
    27   6 C    3.945 --    30 N    1.009    23 C    0.992    78 O    0.952
                            77 O    0.949
    28   7 N    3.223 --    31 C    1.143    25 C    0.946    79 O    0.885
                            35 C    0.134
    29   6 C    3.958 --    32 C    1.018    25 C    0.983    80 O    0.949
                            81 O    0.945
    30   7 N    3.107 --    33 C    1.019    27 C    1.009    82 O    0.902
    31   6 C    3.855 --    35 C    1.743    28 N    1.143    34 C    0.890
    32   6 C    3.958 --    29 C    1.018    36 C    0.997    84 O    0.955
                            83 O    0.953
    33   6 C    3.931 --    37 N    1.725    38 N    1.148    30 N    1.019
    34   6 C    3.938 --    39 N    0.989    40 C    0.973    85 O    0.939
                            31 C    0.890
    35   8 C    2.007 --    31 C    1.743    28 N    0.134
    36   6 C    3.933 --    32 C    0.997    41 N    0.978    86 O    0.954
                            87 O    0.954
    37   7 N    2.897 --    33 C    1.725    88 O    0.920    38 N    0.117
    38   7 N    3.140 --    33 C    1.148    89 O    0.913    90 O    0.911
                            37 N    0.117
    39   7 N    3.395 --    43 C    1.219    34 C    0.989    42 C    0.919
                            46 C    0.159
    40   6 C    3.958 --    44 C    1.020    34 C    0.973    92 O    0.956
                            91 O    0.953
    41   7 N    3.169 --    45 C    1.102    36 C    0.978    93 O    0.894
                            47 N    0.112
    42   6 C    3.898 --    44 C    0.994    95 O    0.957    94 O    0.953
                            39 N    0.919
    43   6 C    3.874 --    46 C    1.606    39 N    1.219     6 C    0.962
    44   6 C    3.964 --    40 C    1.020    42 C    0.994    96 O    0.960
                            97 O    0.958
    45   6 C    3.938 --    47 N    1.678    48 N    1.131    41 N    1.102
    46   8 C    1.910 --    43 C    1.606    39 N    0.159
    47   7 N    2.873 --    45 C    1.678    98 O    0.921    41 N    0.112
    48   7 N    3.112 --    45 C    1.131    99 O    0.911   100 O    0.909
    49   6 C    3.915 --    51 C    0.995     2 C    0.969    50 C    0.958
                           101 O    0.945
    50   8 C    1.873 --    49 C    0.958   102 O    0.816
    51   6 C    3.956 --    49 C    0.995   103 O    0.977   105 O    0.969
                           104 O    0.968
    52   6 C    3.951 --    53 C    1.007     6 C    0.961   106 O    0.958
                           107 O    0.951
    53   6 C    3.961 --    52 C    1.007    54 C    1.001   108 O    0.960
                           109 O    0.957
    54   6 C    3.964 --    53 C    1.001    55 C    0.992   110 O    0.958
                           111 O    0.957
    55   6 C    3.950 --    56 N    1.027    54 C    0.992   113 O    0.958
                           112 O    0.954
    56   7 N    2.957 --    55 C    1.027   114 O    0.940   115 O    0.938
    57   1 O    0.938 --     1 N    0.897
    58   1 O    0.979 --     2 C    0.921
    59   1 O    0.921 --     5 N    0.878
    60   1 O    0.985 --     6 C    0.931
    61   1 O    0.976 --     8 C    0.913
    62   1 O    0.921 --    10 N    0.883
    63   1 O    0.990 --    11 C    0.956
    64   1 O    0.983 --    11 C    0.947
    65   1 O    0.970 --    14 C    0.875
    66   1 O    0.987 --    16 C    0.951
    67   1 O    0.988 --    17 C    0.951
    68   1 O    0.940 --    18 N    0.887
    69   1 O    0.992 --    19 C    0.952
    70   1 O    0.990 --    19 C    0.957
    71   1 O    0.988 --    20 C    0.954
    72   1 O    0.988 --    21 C    0.952
    73   1 O    0.986 --    23 C    0.949
    74   1 O    0.986 --    23 C    0.956
    75   1 O    0.985 --    24 C    0.950
    76   1 O    0.987 --    25 C    0.931
    77   1 O    0.990 --    27 C    0.949
    78   1 O    0.991 --    27 C    0.952
    79   1 O    0.926 --    28 N    0.885
    80   1 O    0.991 --    29 C    0.949
    81   1 O    0.978 --    29 C    0.945
    82   1 O    0.940 --    30 N    0.902
    83   1 O    0.986 --    32 C    0.953
    84   1 O    0.988 --    32 C    0.955
    85   1 O    0.988 --    34 C    0.939
    86   1 O    0.992 --    36 C    0.954
    87   1 O    0.989 --    36 C    0.954
    88   1 O    0.956 --    37 N    0.920
    89   1 O    0.941 --    38 N    0.913
    90   1 O    0.936 --    38 N    0.911
    91   1 O    0.986 --    40 C    0.953
    92   1 O    0.985 --    40 C    0.956
    93   1 O    0.938 --    41 N    0.894
    94   1 O    0.984 --    42 C    0.953
    95   1 O    0.989 --    42 C    0.957
    96   1 O    0.990 --    44 C    0.960
    97   1 O    0.987 --    44 C    0.958
    98   1 O    0.952 --    47 N    0.921
    99   1 O    0.947 --    48 N    0.911
   100   1 O    0.934 --    48 N    0.909
   101   1 O    0.991 --    49 C    0.945
   102   1 O    0.865 --    50 C    0.816
   103   1 O    0.991 --    51 C    0.977
   104   1 O    0.989 --    51 C    0.968
   105   1 O    0.993 --    51 C    0.969
   106   1 O    0.990 --    52 C    0.958
   107   1 O    0.988 --    52 C    0.951
   108   1 O    0.991 --    53 C    0.960
   109   1 O    0.989 --    53 C    0.957
   110   1 O    0.989 --    54 C    0.958
   111   1 O    0.986 --    54 C    0.957
   112   1 O    0.996 --    55 C    0.954
   113   1 O    0.991 --    55 C    0.958
   114   1 O    0.957 --    56 N    0.940
   115   1 O    0.954 --    56 N    0.938
 ---------------------------------------------------------------------------

Topologies differ in total number of bonds
Writing topology from bond orders to xtbtopo.mol

Atomic dipole moments (in atomic units):
---------------------------------------------------------
     #    Z                 x            y            z
---------------------------------------------------------
           total     2.449114    -0.044516    -1.040101
---------------------------------------------------------
         |total|     2.661193     6.764079 Debye


           -------------------------------------------------
          | TOTAL ENERGY            -2645.683889932216 Eh   |
          | GRADIENT NORM               0.424030082747 Eh/α |
           -------------------------------------------------

------------------------------------------------------------------------
 * finished run on 2026/05/23 at 12:39:56.388     
------------------------------------------------------------------------
 total:
 * wall-time:     0 d,  0 h,  0 min, 43.545 sec
 *  cpu-time:     0 d,  0 h,  0 min, 58.614 sec
 * ratio c/w:     1.346 speedup
 SCF:
 * wall-time:     0 d,  0 h,  0 min, 42.988 sec
 *  cpu-time:     0 d,  0 h,  0 min, 58.177 sec
 * ratio c/w:     1.353 speedup

normal termination of xtb
