      -----------------------------------------------------------      
     |                   =====================                   |     
     |                           x T B                           |     
     |                   =====================                   |     
     |                         S. Grimme                         |     
     |          Mulliken Center for Theoretical Chemistry        |     
     |                    University of Bonn                     |     
      -----------------------------------------------------------      

   * xtb version 6.7.1 (edcfbbe) compiled by 'albert@albert-system' on 2024-07-22

   xtb is free software: you can redistribute it and/or modify it under
   the terms of the GNU Lesser General Public License as published by
   the Free Software Foundation, either version 3 of the License, or
   (at your option) any later version.
   
   xtb is distributed in the hope that it will be useful,
   but WITHOUT ANY WARRANTY; without even the implied warranty of
   MERCHANTABILITY or FITNESS FOR A PARTICULAR PURPOSE.  See the
   GNU Lesser General Public License for more details.
   
   Cite this work as:
   * C. Bannwarth, E. Caldeweyher, S. Ehlert, A. Hansen, P. Pracht,
     J. Seibert, S. Spicher, S. Grimme, WIREs Comput. Mol. Sci., 2020, 11,
     e01493. DOI: 10.1002/wcms.1493
   
   for GFN2-xTB:
   * C. Bannwarth, S. Ehlert and S. Grimme., J. Chem. Theory Comput., 2019,
     15, 1652-1671. DOI: 10.1021/acs.jctc.8b01176
   for GFN1-xTB:
   * S. Grimme, C. Bannwarth, P. Shushkov, J. Chem. Theory Comput., 2017,
     13, 1989-2009. DOI: 10.1021/acs.jctc.7b00118
   for GFN0-xTB:
   * P. Pracht, E. Caldeweyher, S. Ehlert, S. Grimme, ChemRxiv, 2019, preprint.
     DOI: 10.26434/chemrxiv.8326202.v1
   for GFN-FF:
   * S. Spicher and S. Grimme, Angew. Chem. Int. Ed., 2020, 59, 15665-15673.
     DOI: 10.1002/anie.202004239
   
   for ALPB and GBSA implicit solvation:
   * S. Ehlert, M. Stahn, S. Spicher, S. Grimme, J. Chem. Theory Comput.,
     2021, 17, 4250-4261. DOI: 10.1021/acs.jctc.1c00471
   
   for ddCOSMO and CPCM-X implicit solvation:
   * M. Stahn, S. Ehlert, S. Grimme, J. Phys. Chem. A,
     2023, XX, XXXX-XXXX. DOI: 10.1021/acs.jpca.3c04382
   
   for DFT-D4:
   * E. Caldeweyher, C. Bannwarth and S. Grimme, J. Chem. Phys., 2017,
     147, 034112. DOI: 10.1063/1.4993215
   * E. Caldeweyher, S. Ehlert, A. Hansen, H. Neugebauer, S. Spicher,
     C. Bannwarth and S. Grimme, J. Chem. Phys., 2019, 150, 154122.
     DOI: 10.1063/1.5090222
   * E. Caldeweyher, J.-M. Mewes, S. Ehlert and S. Grimme, Phys. Chem. Chem. Phys.
     2020, 22, 8499-8512. DOI: 10.1039/D0CP00502A
   
   for sTDA-xTB:
   * S. Grimme and C. Bannwarth, J. Chem. Phys., 2016, 145, 054103.
     DOI: 10.1063/1.4959605
   
   in the mass-spec context:
   * V. Asgeirsson, C. Bauer and S. Grimme, Chem. Sci., 2017, 8, 4879.
     DOI: 10.1039/c7sc00601b
   * J. Koopman and S. Grimme, ACS Omega 2019, 4, 12, 15120-15133.
     DOI: 10.1021/acsomega.9b02011
   
   for metadynamics refer to:
   * S. Grimme, J. Chem. Theory Comput., 2019, 155, 2847-2862
     DOI: 10.1021/acs.jctc.9b00143
   
   for SPH calculations refer to:
   * S. Spicher and S. Grimme, J. Chem. Theory Comput., 2021, 17, 1701-1714
     DOI: 10.1021/acs.jctc.0c01306
   
   for ONIOM refer to:
   * C. Plett, A. Katbashev, S. Ehlert, S. Grimme, M. Bursch,
     Phys. Chem. Chem. Phys., 2023, 25, 17860-17868. DOI: 10.1039/D3CP02178E
   
   for DIPRO refer to:
   * J. Kohn, N. Gildemeister, S. Grimme, D. Fazzi, A. Hansen,
     J. Chem. Phys., 2023, just accepted.
   
   for PTB refer to:
   * S. Grimme, M. Mueller, A. Hansen, J. Chem. Phys., 2023, 158, 124111.
     DOI: 10.1063/5.0137838
   
   with help from (in alphabetical order)
   P. Atkinson, C. Bannwarth, F. Bohle, G. Brandenburg, E. Caldeweyher
   M. Checinski, S. Dohm, S. Ehlert, S. Ehrlich, I. Gerasimov, C. Hölzer
   A. Katbashev, J. Kohn, J. Koopman, C. Lavigne, S. Lehtola, F. März, M. Müller,
   F. Musil, H. Neugebauer, J. Pisarek, C. Plett, P. Pracht, F. Pultar,
   J. Seibert, P. Shushkov, S. Spicher, M. Stahn, M. Steiner, T. Strunk,
   J. Stückrath, T. Rose, and J. Unsleber
   
 * started run on 2026/05/23 at 12:32:50.043     
   ID    Z sym.   atoms
    1    7 N      1, 5, 10, 17, 18, 26, 33, 36, 42, 49, 54
    2    6 C      2, 3, 6-8, 11-14, 19-22, 24, 25, 27-30, 32, 34, 37, 39, 40,
                  43-45, 47, 50-52, 55
    3    8 O      4, 9, 15, 16, 23, 31, 35, 38, 41, 46, 48, 53, 56
    4    1 H      57-109

           -------------------------------------------------
          |                Calculation Setup                |
           -------------------------------------------------

          program call               : /home/xchen/software/xtb-6.7.1/xtb-dist/bin/xtb /home/xchen/Test/benchmark/md_sampled/08_7_0366_0/snap_0046.xyz --charge 0 --gfn 2 --norestart
          coordinate file            : /home/xchen/Test/benchmark/md_sampled/08_7_0366_0/snap_0046.xyz
          omp threads                :                    48


           -------------------------------------------------
          |                 G F N 2 - x T B                 |
           -------------------------------------------------

        Reference                      10.1021/acs.jctc.8b01176
      * Hamiltonian:
        H0-scaling (s, p, d)           1.850000    2.230000    2.230000
        zeta-weighting                 0.500000
      * Dispersion:
        s8                             2.700000
        a1                             0.520000
        a2                             5.000000
        s9                             5.000000
      * Repulsion:
        kExp                           1.500000    1.000000
        rExp                           1.000000
      * Coulomb:
        alpha                          2.000000
        third order                    shell-resolved
        anisotropic                    true
        a3                             3.000000
        a5                             4.000000
        cn-shift                       1.200000
        cn-exp                         4.000000
        max-rad                        5.000000


          ...................................................
          :                      SETUP                      :
          :.................................................:
          :  # basis functions                 277          :
          :  # atomic orbitals                 277          :
          :  # shells                          165          :
          :  # electrons                       314          :
          :  max. iterations                   250          :
          :  Hamiltonian                  GFN2-xTB          :
          :  restarted?                      false          :
          :  GBSA solvation                  false          :
          :  PC potential                    false          :
          :  electronic temp.          300.0000000     K    :
          :  accuracy                    1.0000000          :
          :  -> integral cutoff          0.2500000E+02      :
          :  -> integral neglect         0.1000000E-07      :
          :  -> SCF convergence          0.1000000E-05 Eh   :
          :  -> wf. convergence          0.1000000E-03 e    :
          :  Broyden damping             0.4000000          :
          :  net charge                          0          :
          :  unpaired electrons                  0          :
          ...................................................

 iter      E             dE          RMSdq      gap      omega  full diag
   1   -181.9286548 -0.181929E+03  0.437E+00    3.78       0.0  T
   2   -182.4274958 -0.498841E+00  0.231E+00    3.20       1.0  T
   3   -182.4508068 -0.233109E-01  0.127E+00    3.50       1.0  T
   4   -182.4558931 -0.508632E-02  0.231E-01    3.18       1.0  T
   5   -182.4600435 -0.415046E-02  0.960E-02    3.32       1.0  T
   6   -182.4601197 -0.762025E-04  0.434E-02    3.30       1.0  T
   7   -182.4601370 -0.172767E-04  0.161E-02    3.32       1.0  T
   8   -182.4601464 -0.932797E-05  0.588E-03    3.30       1.6  T
   9   -182.4601471 -0.766002E-06  0.244E-03    3.31       3.9  T
  10   -182.4601472 -0.716807E-07  0.994E-04    3.31       9.6  T
  11   -182.4601472 -0.275239E-07  0.302E-04    3.31      31.7  T

   *** convergence criteria satisfied after 11 iterations ***

         #    Occupation            Energy/Eh            Energy/eV
      -------------------------------------------------------------
         1        2.0000           -0.7268595             -19.7789
       ...           ...                  ...                  ...
       151        2.0000           -0.4034765             -10.9792
       152        2.0000           -0.4026243             -10.9560
       153        2.0000           -0.3999983             -10.8845
       154        2.0000           -0.3949582             -10.7474
       155        2.0000           -0.3928180             -10.6891
       156        2.0000           -0.3919661             -10.6659
       157        2.0000           -0.3853898             -10.4870 (HOMO)
       158                         -0.2638873              -7.1807 (LUMO)
       159                         -0.2364396              -6.4338
       160                         -0.2352969              -6.4028
       161                         -0.2293746              -6.2416
       162                         -0.2290419              -6.2325
       ...                                ...                  ...
       277                          0.7835318              21.3210
      -------------------------------------------------------------
                  HL-Gap            0.1215025 Eh            3.3063 eV
             Fermi-level           -0.3246386 Eh           -8.8339 eV

 SCC (total)                   0 d,  0 h,  0 min, 12.368 sec
 SCC setup                      ...        0 min,  0.031 sec (  0.254%)
 Dispersion                     ...        0 min,  0.133 sec (  1.077%)
 classical contributions        ...        0 min,  0.017 sec (  0.136%)
 integral evaluation            ...        0 min,  0.690 sec (  5.583%)
 iterations                     ...        0 min, 10.718 sec ( 86.661%)
 molecular gradient             ...        0 min,  0.760 sec (  6.147%)
 printout                       ...        0 min,  0.017 sec (  0.141%)

         :::::::::::::::::::::::::::::::::::::::::::::::::::::
         ::                     SUMMARY                     ::
         :::::::::::::::::::::::::::::::::::::::::::::::::::::
         :: total energy            -180.518926182638 Eh    ::
         :: gradient norm              0.372915420493 Eh/a0 ::
         :: HOMO-LUMO gap              3.306251721712 eV    ::
         ::.................................................::
         :: SCC energy              -182.451514072214 Eh    ::
         :: -> isotropic ES            0.464548395174 Eh    ::
         :: -> anisotropic ES          0.005057927809 Eh    ::
         :: -> anisotropic XC          0.045032052693 Eh    ::
         :: -> dispersion             -0.133886828437 Eh    ::
         :: repulsion energy           1.932587889577 Eh    ::
         :: add. restraining           0.000000000000 Eh    ::
         :: total charge              -0.000000000000 e     ::
         :::::::::::::::::::::::::::::::::::::::::::::::::::::

           -------------------------------------------------
          |                Property Printout                |
           -------------------------------------------------

    * Orbital Energies and Occupations

         #    Occupation            Energy/Eh            Energy/eV
      -------------------------------------------------------------
         1        2.0000           -0.7268595             -19.7789
       ...           ...                  ...                  ...
       145        2.0000           -0.4164290             -11.3316
       146        2.0000           -0.4134515             -11.2506
       147        2.0000           -0.4091570             -11.1337
       148        2.0000           -0.4074206             -11.0865
       149        2.0000           -0.4059681             -11.0470
       150        2.0000           -0.4052988             -11.0287
       151        2.0000           -0.4034765             -10.9792
       152        2.0000           -0.4026243             -10.9560
       153        2.0000           -0.3999983             -10.8845
       154        2.0000           -0.3949582             -10.7474
       155        2.0000           -0.3928180             -10.6891
       156        2.0000           -0.3919661             -10.6659
       157        2.0000           -0.3853898             -10.4870 (HOMO)
       158                         -0.2638873              -7.1807 (LUMO)
       159                         -0.2364396              -6.4338
       160                         -0.2352969              -6.4028
       161                         -0.2293746              -6.2416
       162                         -0.2290419              -6.2325
       163                         -0.2249608              -6.1215
       164                         -0.2207586              -6.0071
       165                         -0.2193035              -5.9676
       166                         -0.2184236              -5.9436
       167                         -0.2164685              -5.8904
       168                         -0.2128162              -5.7910
       ...                                ...                  ...
       277                          0.7835318              21.3210
      -------------------------------------------------------------
                  HL-Gap            0.1215025 Eh            3.3063 eV
             Fermi-level           -0.3246386 Eh           -8.8339 eV

     #   Z          covCN         q      C6AA      α(0)
     1   7 N        2.696    -0.190    25.124     7.444
     2   6 C        3.789     0.033    20.022     6.373
     3   6 C        2.735     0.258    22.651     7.792
     4   8 O        0.856    -0.426    22.200     6.317
     5   7 N        2.662    -0.238    26.219     7.605
     6   6 C        3.762     0.008    20.485     6.452
     7   6 C        2.737     0.292    22.055     7.689
     8   6 C        3.763     0.000    20.617     6.472
     9   8 O        0.859    -0.372    21.132     6.163
    10   7 N        2.672    -0.213    25.641     7.521
    11   6 C        3.796    -0.102    22.455     6.748
    12   6 C        2.745     0.275    22.350     7.741
    13   6 C        2.746     0.299    21.932     7.668
    14   6 C        3.779     0.014    20.357     6.428
    15   8 O        0.857    -0.407    21.816     6.262
    16   8 O        0.858    -0.384    21.357     6.196
    17   7 N        2.631    -0.313    28.062     7.868
    18   7 N        2.676    -0.152    24.295     7.320
    19   6 C        3.795    -0.074    21.915     6.666
    20   6 C        2.742     0.250    22.795     7.817
    21   6 C        3.835    -0.012    20.757     6.482
    22   6 C        3.806     0.021    20.224     6.402
    23   8 O        0.856    -0.445    22.592     6.373
    24   6 C        3.766    -0.121    22.864     6.815
    25   6 C        3.746    -0.115    22.781     6.808
    26   7 N        2.680    -0.217    25.744     7.536
    27   6 C        3.799    -0.060    21.655     6.626
    28   6 C        2.767     0.279    22.280     7.730
    29   6 C        3.779    -0.093    22.302     6.728
    30   6 C        3.783     0.005    20.517     6.452
    31   8 O        0.857    -0.391    21.497     6.216
    32   6 C        2.741     0.290    22.088     7.695
    33   7 N        2.679    -0.185    25.007     7.427
    34   6 C        3.721     0.113    18.834     6.198
    35   8 O        0.862    -0.439    22.479     6.357
    36   7 N        2.634    -0.272    27.030     7.721
    37   6 C        2.748     0.282    22.217     7.718
    38   8 O        1.648    -0.480    22.463     6.398
    39   6 C        3.738    -0.117    22.826     6.817
    40   6 C        3.795     0.026    20.139     6.390
    41   8 O        0.859    -0.418    22.042     6.295
    42   7 N        2.705    -0.147    24.184     7.304
    43   6 C        3.841    -0.066    21.729     6.631
    44   6 C        2.762     0.302    21.883     7.661
    45   6 C        3.807    -0.100    22.401     6.738
    46   8 O        0.865    -0.427    22.219     6.320
    47   6 C        2.781     0.291    22.068     7.694
    48   8 O        0.861    -0.465    23.028     6.434
    49   7 N        2.642    -0.265    26.872     7.699
    50   6 C        3.818    -0.078    21.972     6.671
    51   6 C        3.788    -0.082    22.078     6.692
    52   6 C        2.744     0.282    22.227     7.719
    53   8 O        0.860    -0.402    21.715     6.248
    54   7 N        2.635    -0.288    27.441     7.780
    55   6 C        3.666     0.074    19.598     6.349
    56   8 O        1.652    -0.432    21.476     6.256
    57   1 H        0.858     0.195     1.133     1.667
    58   1 H        0.928     0.079     1.984     2.203
    59   1 H        0.862     0.192     1.150     1.680
    60   1 H        0.915     0.085     1.932     2.174
    61   1 H        0.926     0.082     1.957     2.188
    62   1 H        0.859     0.175     1.246     1.748
    63   1 H        0.924     0.076     2.018     2.222
    64   1 H        0.919     0.072     2.060     2.245
    65   1 H        0.927     0.095     1.835     2.118
    66   1 H        0.861     0.199     1.111     1.651
    67   1 H        0.854     0.177     1.233     1.739
    68   1 H        0.858     0.200     1.106     1.647
    69   1 H        0.922     0.052     2.297     2.370
    70   1 H        0.919     0.035     2.518     2.482
    71   1 H        0.921     0.025     2.657     2.549
    72   1 H        0.928     0.108     1.714     2.047
    73   1 H        0.928     0.061     2.191     2.315
    74   1 H        0.925     0.046     2.376     2.411
    75   1 H        0.919     0.022     2.707     2.573
    76   1 H        0.928     0.054     2.275     2.359
    77   1 H        0.921     0.031     2.567     2.505
    78   1 H        0.925     0.041     2.440     2.443
    79   1 H        0.856     0.183     1.201     1.717
    80   1 H        0.926     0.059     2.213     2.326
    81   1 H        0.922     0.050     2.321     2.383
    82   1 H        0.909     0.061     2.193     2.316
    83   1 H        0.925     0.060     2.202     2.321
    84   1 H        0.925     0.098     1.804     2.100
    85   1 H        0.861     0.195     1.131     1.666
    86   1 H        0.923     0.044     2.395     2.420
    87   1 H        0.861     0.196     1.126     1.663
    88   1 H        0.858     0.178     1.227     1.735
    89   1 H        0.808     0.316     0.673     1.289
    90   1 H        0.911     0.053     2.290     2.367
    91   1 H        0.925     0.054     2.271     2.357
    92   1 H        0.924     0.054     2.265     2.353
    93   1 H        0.918     0.057     2.230     2.336
    94   1 H        0.860     0.176     1.235     1.741
    95   1 H        0.915     0.041     2.436     2.441
    96   1 H        0.926     0.043     2.406     2.426
    97   1 H        0.923     0.047     2.360     2.402
    98   1 H        0.926     0.113     1.671     2.021
    99   1 H        0.859     0.197     1.120     1.658
   100   1 H        0.862     0.189     1.162     1.688
   101   1 H        0.925     0.086     1.918     2.166
   102   1 H        0.926     0.095     1.829     2.115
   103   1 H        0.916     0.064     2.154     2.295
   104   1 H        0.920     0.028     2.622     2.532
   105   1 H        0.860     0.168     1.285     1.775
   106   1 H        0.862     0.195     1.131     1.666
   107   1 H        0.914     0.033     2.543     2.494
   108   1 H        0.917     0.060     2.201     2.321
   109   1 H        0.805     0.299     0.723     1.336

 Mol. C6AA /au·bohr⁶  :     113080.574573
 Mol. C8AA /au·bohr⁸  :    2500741.509269
 Mol. α(0) /au        :        499.685921


Wiberg/Mayer (AO) data.
largest (>0.10) Wiberg bond orders for each atom

 ---------------------------------------------------------------------------
     #   Z sym  total        # sym  WBO       # sym  WBO       # sym  WBO
 ---------------------------------------------------------------------------
     1   7 N    3.380 --     7 C    1.202     2 C    0.992    57 H    0.918
                             9 O    0.179
     2   6 C    3.966 --     1 N    0.992    50 C    0.977    58 H    0.961
                             3 C    0.905
     3   6 C    3.924 --     4 O    1.714     5 N    1.210     2 C    0.905
     4   8 O    2.024 --     3 C    1.714     5 N    0.162
     5   7 N    3.318 --     3 C    1.210    59 H    0.933     6 C    0.922
                             4 O    0.162
     6   6 C    3.952 --    55 C    1.004    60 H    0.950    44 C    0.936
                             5 N    0.922
     7   6 C    3.940 --     9 O    1.793     1 N    1.202     8 C    0.872
     8   6 C    3.952 --    11 C    0.977    10 N    0.962    61 H    0.962
                             7 C    0.872
     9   8 O    2.111 --     7 C    1.793     1 N    0.179
    10   7 N    3.389 --    12 C    1.217     8 C    0.962    62 H    0.924
                            15 O    0.193
    11   6 C    3.988 --     8 C    0.977    63 H    0.972    13 C    0.964
                            64 H    0.960
    12   6 C    3.945 --    15 O    1.724    10 N    1.217    14 C    0.930
    13   6 C    3.944 --    16 O    1.788    17 N    1.156    11 C    0.964
    14   6 C    3.964 --    18 N    0.995    19 C    0.961    65 H    0.944
                            12 C    0.930
    15   8 O    2.047 --    12 C    1.724    10 N    0.193
    16   8 O    2.063 --    13 C    1.788    17 N    0.161
    17   7 N    3.220 --    13 C    1.156    67 H    0.946    66 H    0.925
                            16 O    0.161
    18   7 N    3.467 --    20 C    1.274    14 C    0.995    68 H    0.926
                            23 O    0.200
    19   6 C    3.982 --    21 C    0.987    69 H    0.972    14 C    0.961
                            70 H    0.957
    20   6 C    3.947 --    23 O    1.665    18 N    1.274    22 C    0.935
    21   6 C    3.989 --    24 C    1.005    25 C    1.004    19 C    0.987
                            71 H    0.968
    22   6 C    3.963 --    26 N    0.987    27 C    0.985    20 C    0.935
                            72 H    0.933
    23   8 O    1.986 --    20 C    1.665    18 N    0.200
    24   6 C    3.990 --    21 C    1.005    74 H    0.985    75 H    0.984
                            73 H    0.982
    25   6 C    3.993 --    21 C    1.004    76 H    0.988    77 H    0.985
                            78 H    0.978
    26   7 N    3.347 --    28 C    1.181    22 C    0.987    79 H    0.904
                            31 O    0.176
    27   6 C    3.984 --    22 C    0.985    29 C    0.978    80 H    0.973
                            81 H    0.968
    28   6 C    3.946 --    31 O    1.755    26 N    1.181    30 C    0.931
    29   6 C    3.990 --    27 C    0.978    82 H    0.969    32 C    0.965
                            83 H    0.959
    30   6 C    3.963 --    34 C    0.967    33 N    0.965    84 H    0.953
                            28 C    0.931
    31   8 O    2.068 --    28 C    1.755    26 N    0.176
    32   6 C    3.939 --    35 O    1.706    36 N    1.239    29 C    0.965
    33   7 N    3.401 --    37 C    1.249    30 C    0.965    85 H    0.909
                            41 O    0.184
    34   6 C    3.953 --    39 C    1.007    30 C    0.967    86 H    0.966
                            38 O    0.959
    35   8 O    2.012 --    32 C    1.706    36 N    0.192
    36   7 N    3.357 --    32 C    1.239    88 H    0.950    87 H    0.942
                            35 O    0.192
    37   6 C    3.953 --    41 O    1.711    33 N    1.249    40 C    0.913
    38   8 O    1.944 --    34 C    0.959    89 H    0.887
    39   6 C    3.984 --    34 C    1.007    90 H    0.981    92 H    0.981
                            91 H    0.978
    40   6 C    3.965 --    42 N    1.002    43 C    0.981    93 H    0.942
                            37 C    0.913
    41   8 O    2.019 --    37 C    1.711    33 N    0.184
    42   7 N    3.465 --    44 C    1.264    40 C    1.002    94 H    0.928
                            46 O    0.195
    43   6 C    3.985 --    40 C    0.981    45 C    0.973    96 H    0.971
                            95 H    0.964
    44   6 C    3.955 --    46 O    1.685    42 N    1.264     6 C    0.936
    45   6 C    3.983 --    47 C    0.977    43 C    0.973    97 H    0.947
                            98 H    0.940
    46   8 O    2.025 --    44 C    1.685    42 N    0.195
    47   6 C    3.947 --    48 O    1.660    49 N    1.271    45 C    0.977
    48   8 O    1.959 --    47 C    1.660    49 N    0.189
    49   7 N    3.381 --    47 C    1.271   100 H    0.946    99 H    0.937
                            48 O    0.189
    50   6 C    3.976 --    51 C    1.004     2 C    0.977   102 H    0.962
                           101 H    0.957
    51   6 C    3.993 --    50 C    1.004   104 H    0.972   103 H    0.958
                            52 C    0.952
    52   6 C    3.940 --    53 O    1.753    54 N    1.205    51 C    0.952
    53   8 O    2.046 --    52 C    1.753    54 N    0.186
    54   7 N    3.317 --    52 C    1.205   105 H    0.952   106 H    0.942
                            53 O    0.186
    55   6 C    3.959 --     6 C    1.004    56 O    0.998   108 H    0.962
                           107 H    0.961
    56   8 O    1.960 --    55 C    0.998   109 H    0.898
    57   1 H    0.962 --     1 N    0.918
    58   1 H    0.994 --     2 C    0.961
    59   1 H    0.963 --     5 N    0.933
    60   1 H    0.993 --     6 C    0.950
    61   1 H    0.993 --     8 C    0.962
    62   1 H    0.970 --    10 N    0.924
    63   1 H    0.994 --    11 C    0.972
    64   1 H    0.994 --    11 C    0.960
    65   1 H    0.991 --    14 C    0.944
    66   1 H    0.960 --    17 N    0.925
    67   1 H    0.968 --    17 N    0.946
    68   1 H    0.960 --    18 N    0.926
    69   1 H    0.997 --    19 C    0.972
    70   1 H    0.998 --    19 C    0.957
    71   1 H    0.999 --    21 C    0.968
    72   1 H    0.987 --    22 C    0.933
    73   1 H    0.996 --    24 C    0.982
    74   1 H    0.998 --    24 C    0.985
    75   1 H    0.999 --    24 C    0.984
    76   1 H    0.997 --    25 C    0.988
    77   1 H    0.999 --    25 C    0.985
    78   1 H    0.998 --    25 C    0.978
    79   1 H    0.967 --    26 N    0.904
    80   1 H    0.996 --    27 C    0.973
    81   1 H    0.997 --    27 C    0.968
    82   1 H    0.996 --    29 C    0.969
    83   1 H    0.996 --    29 C    0.959
    84   1 H    0.990 --    30 C    0.953
    85   1 H    0.962 --    33 N    0.909
    86   1 H    0.997 --    34 C    0.966
    87   1 H    0.961 --    36 N    0.942
    88   1 H    0.968 --    36 N    0.950
    89   1 H    0.900 --    38 O    0.887
    90   1 H    0.997 --    39 C    0.981
    91   1 H    0.997 --    39 C    0.978
    92   1 H    0.997 --    39 C    0.981
    93   1 H    0.996 --    40 C    0.942
    94   1 H    0.968 --    42 N    0.928
    95   1 H    0.998 --    43 C    0.964
    96   1 H    0.997 --    43 C    0.971
    97   1 H    0.998 --    45 C    0.947
    98   1 H    0.987 --    45 C    0.940
    99   1 H    0.961 --    49 N    0.937
   100   1 H    0.964 --    49 N    0.946
   101   1 H    0.992 --    50 C    0.957
   102   1 H    0.991 --    50 C    0.962
   103   1 H    0.995 --    51 C    0.958
   104   1 H    0.999 --    51 C    0.972
   105   1 H    0.972 --    54 N    0.952
   106   1 H    0.962 --    54 N    0.942
   107   1 H    0.998 --    55 C    0.961
   108   1 H    0.996 --    55 C    0.962
   109   1 H    0.910 --    56 O    0.898
 ---------------------------------------------------------------------------

Topologies differ in total number of bonds
Writing topology from bond orders to xtbtopo.mol

molecular dipole:
                 x           y           z       tot (Debye)
 q only:        0.351      -1.358       2.429
   full:        0.516      -1.768       2.318       7.525
molecular quadrupole (traceless):
                xx          xy          yy          xz          yz          zz
 q only:       23.389      28.073      -5.523       8.024     -43.800     -17.866
  q+dip:       21.198      38.984      -0.785      16.418     -55.478     -20.413
   full:       21.458      38.664      -2.146      15.802     -55.613     -19.312


           -------------------------------------------------
          | TOTAL ENERGY             -180.518926182638 Eh   |
          | GRADIENT NORM               0.372915420493 Eh/α |
          | HOMO-LUMO GAP               3.306251721712 eV   |
           -------------------------------------------------

------------------------------------------------------------------------
 * finished run on 2026/05/23 at 12:33:03.606     
------------------------------------------------------------------------
 total:
 * wall-time:     0 d,  0 h,  0 min, 13.529 sec
 *  cpu-time:     0 d,  0 h,  0 min, 20.459 sec
 * ratio c/w:     1.512 speedup
 SCF:
 * wall-time:     0 d,  0 h,  0 min, 12.370 sec
 *  cpu-time:     0 d,  0 h,  0 min, 19.388 sec
 * ratio c/w:     1.567 speedup

normal termination of xtb
