      -----------------------------------------------------------      
     |                   =====================                   |     
     |                           x T B                           |     
     |                   =====================                   |     
     |                         S. Grimme                         |     
     |          Mulliken Center for Theoretical Chemistry        |     
     |                    University of Bonn                     |     
      -----------------------------------------------------------      

   * xtb version 6.7.1 (26dd68d) compiled by 'froitzheim@fs7' on 2026-05-14

   xtb is free software: you can redistribute it and/or modify it under
   the terms of the GNU Lesser General Public License as published by
   the Free Software Foundation, either version 3 of the License, or
   (at your option) any later version.
   
   xtb is distributed in the hope that it will be useful,
   but WITHOUT ANY WARRANTY; without even the implied warranty of
   MERCHANTABILITY or FITNESS FOR A PARTICULAR PURPOSE.  See the
   GNU Lesser General Public License for more details.
   
   Cite this work as:
   * C. Bannwarth, E. Caldeweyher, S. Ehlert, A. Hansen, P. Pracht,
     J. Seibert, S. Spicher, S. Grimme, WIREs Comput. Mol. Sci., 2020, 11,
     e01493. DOI: 10.1002/wcms.1493
   
   for g-xTB:
   * T. Froitzheim, M. Müller, A. Hansen, S. Grimme, ChemRxiv, 2025, preprint.
     DOI: 10.26434/chemrxiv-2025-bjxv
   for GFN2-xTB:
   * C. Bannwarth, S. Ehlert and S. Grimme., J. Chem. Theory Comput., 2019,
     15, 1652-1671. DOI: 10.1021/acs.jctc.8b01176
   for GFN1-xTB:
   * S. Grimme, C. Bannwarth, P. Shushkov, J. Chem. Theory Comput., 2017,
     13, 1989-2009. DOI: 10.1021/acs.jctc.7b00118
   for GFN0-xTB:
   * P. Pracht, E. Caldeweyher, S. Ehlert, S. Grimme, ChemRxiv, 2019, preprint.
     DOI: 10.26434/chemrxiv.8326202.v1
   for GFN-FF:
   * S. Spicher and S. Grimme, Angew. Chem. Int. Ed., 2020, 59, 15665-15673.
     DOI: 10.1002/anie.202004239
   
   for ALPB and GBSA implicit solvation:
   * S. Ehlert, M. Stahn, S. Spicher, S. Grimme, J. Chem. Theory Comput.,
     2021, 17, 4250-4261. DOI: 10.1021/acs.jctc.1c00471
   
   for ddCOSMO and CPCM-X implicit solvation:
   * M. Stahn, S. Ehlert, S. Grimme, J. Phys. Chem. A,
     2023, XX, XXXX-XXXX. DOI: 10.1021/acs.jpca.3c04382
   
   for DFT-D4:
   * E. Caldeweyher, C. Bannwarth and S. Grimme, J. Chem. Phys., 2017,
     147, 034112. DOI: 10.1063/1.4993215
   * E. Caldeweyher, S. Ehlert, A. Hansen, H. Neugebauer, S. Spicher,
     C. Bannwarth and S. Grimme, J. Chem. Phys., 2019, 150, 154122.
     DOI: 10.1063/1.5090222
   * E. Caldeweyher, J.-M. Mewes, S. Ehlert and S. Grimme, Phys. Chem. Chem. Phys.
     2020, 22, 8499-8512. DOI: 10.1039/D0CP00502A
   
   for sTDA-xTB:
   * S. Grimme and C. Bannwarth, J. Chem. Phys., 2016, 145, 054103.
     DOI: 10.1063/1.4959605
   
   in the mass-spec context:
   * V. Asgeirsson, C. Bauer and S. Grimme, Chem. Sci., 2017, 8, 4879.
     DOI: 10.1039/c7sc00601b
   * J. Koopman and S. Grimme, ACS Omega 2019, 4, 12, 15120-15133.
     DOI: 10.1021/acsomega.9b02011
   
   for metadynamics refer to:
   * S. Grimme, J. Chem. Theory Comput., 2019, 155, 2847-2862
     DOI: 10.1021/acs.jctc.9b00143
   
   for SPH calculations refer to:
   * S. Spicher and S. Grimme, J. Chem. Theory Comput., 2021, 17, 1701-1714
     DOI: 10.1021/acs.jctc.0c01306
   
   for ONIOM refer to:
   * C. Plett, A. Katbashev, S. Ehlert, S. Grimme, M. Bursch,
     Phys. Chem. Chem. Phys., 2023, 25, 17860-17868. DOI: 10.1039/D3CP02178E
   
   for DIPRO refer to:
   * J. Kohn, N. Gildemeister, S. Grimme, D. Fazzi, A. Hansen,
     J. Chem. Phys. 159, 144106 (2023). DOI: 10.1063/5.0167484
   
   for PTB refer to:
   * S. Grimme, M. Mueller, A. Hansen, J. Chem. Phys., 2023, 158, 124111.
     DOI: 10.1063/5.0137838
   
   with help from (in alphabetical order)
   P. Atkinson, C. Bannwarth, F. Bohle, G. Brandenburg, E. Caldeweyher,
   M. Checinski, S. Dohm, S. Ehlert, S. Ehrlich, M. Friede, T. Froitzheim,
   I. Gerasimov, C. Hölzer, A. Katbashev, J. Kohn, J. Koopman, C. Lavigne,
   S. Lehtola, F. März, M. Müller, F. Musil, H. Neugebauer, J. Pisarek,
   C. Plett, P. Pracht, F. Pultar, J. Seibert, P. Shushkov, S. Spicher,
   M. Stahn, M. Steiner, T. Strunk, J. Stückrath, T. Rose, and J. Unsleber
   
 * started run on 2026/05/23 at 12:49:22.435     
   ID    Z sym.   atoms
    1    7 N      1, 5, 13, 19, 23, 28, 35
    2    6 C      2, 3, 6-10, 12, 14, 15, 17, 20, 21, 24-26, 29, 30, 32, 33,
                  36, 37, 39, 41-44
    3    8 O      4, 11, 18, 22, 27, 31, 34, 38, 40
    4   16 S      16
    5    1 H      45-89

           -------------------------------------------------
          |                Calculation Setup                |
           -------------------------------------------------

          program call               : /home/xchen/software/xtb-6.7.1-gxtb/bin/xtb /home/xchen/Test/benchmark/md_sampled/06_7_0793_0/snap_0179.xyz --charge 0 --gxtb --norestart
          coordinate file            : /home/xchen/Test/benchmark/md_sampled/06_7_0793_0/snap_0179.xyz
          omp threads                :                    48

core increment energy         -2.3123015384480E+03 Eh
dispersion energy              2.1425603906907E-02 Eh
molecular charge               0.0000000000000E+00 e
number of electrons            2.4799999999781E+02 e
number of unpaired electrons   0.0000000000000E+00 e
wavefunction                   restricted
integral cutoff                2.6907767250513E+01 bohr
energy convergence             1.0000000000000E-06 Eh
density convergence            2.0000000000000E-05 e

------------------------------------------------------------
  cycle        total energy    energy error   density error
------------------------------------------------------------
      1     -2513.319327945  -2.0103922E+02   0.0000000E+00
      2     -2513.728746730  -4.0941878E-01   2.2123409E-02
      3     -2513.986741905  -2.5799518E-01   1.7374721E-02
      4     -2514.514369439  -5.2762753E-01   1.3711263E-02
      5     -2514.522614913  -8.2454745E-03   9.5542648E-04
      6     -2514.523157264  -5.4235052E-04   2.2092289E-04
      7     -2514.523213580  -5.6315907E-05   6.2464829E-05
      8     -2514.523217729  -4.1492448E-06   1.7320351E-05
      9     -2514.523218269  -5.4033234E-07   3.0378787E-06
------------------------------------------------------------

electronic energy             -2.0224310542529E+02 Eh
total energy                  -2.5145232182694E+03 Eh

Post processing:
 | Mayer-Wiberg bond orders
 | Molecular Multipole Moments

 total:                                   9.949 sec
 - increment                              0.000 sec (  0%)
 - repulsion                              0.009 sec (  0%)
 - dispersion                             0.321 sec (  3%)
 - coulomb                                0.145 sec (  1%)
 - exchange                               0.004 sec (  0%)
 - hamiltonian                            0.569 sec (  5%)
 - acp                                    0.270 sec (  2%)
 - spin polarization                      0.000 sec (  0%)
 - post processing                        0.121 sec (  1%)
 - scc                                    7.646 sec ( 76%)
 - coulomb gradient                       0.049 sec (  0%)
 - dispersion gradient                    0.031 sec (  0%)
 - exchange gradient                      0.114 sec (  1%)
 - repulsion gradient                     0.005 sec (  0%)
 - acp gradient                           0.338 sec (  3%)
 - hamiltonian gradient                   0.438 sec (  4%)
 - gradient                               0.977 sec (  9%)

         :::::::::::::::::::::::::::::::::::::::::::::::::::::
         ::                     SUMMARY                     ::
         :::::::::::::::::::::::::::::::::::::::::::::::::::::
         :: total energy           -2514.523218269387 Eh    ::
         :: gradient norm              0.344918514945 Eh/a0 ::
         :: HOMO-LUMO gap              8.776179513238 eV    ::
         ::.................................................::
         :: add. restraining           0.000000000000 Eh    ::
         :: total charge              -0.000000000000 e     ::
         :::::::::::::::::::::::::::::::::::::::::::::::::::::

           -------------------------------------------------
          |                Property Printout                |
           -------------------------------------------------

    * Orbital Energies and Occupations
------------------------------------------------------------------
      #    Occupation            Energy/Eh            Energy/eV
------------------------------------------------------------------
      1        2.0000           -1.3684228             -37.2367
    ...           ...                  ...                  ...
    112        2.0000           -0.3929355             -10.6923
    113        2.0000           -0.3897753             -10.6063
    114        2.0000           -0.3894482             -10.5974
    115        2.0000           -0.3759961             -10.2314
    116        2.0000           -0.3730750             -10.1519
    117        2.0000           -0.3709553             -10.0942
    118        2.0000           -0.3683778             -10.0241
    119        2.0000           -0.3681830             -10.0188
    120        2.0000           -0.3636718              -9.8960
    121        2.0000           -0.3625751              -9.8662
    122        2.0000           -0.3560864              -9.6896
    123        2.0000           -0.3535656              -9.6210
    124        2.0000           -0.3392479              -9.2314 (HOMO)
    125                         -0.0167293              -0.4552 (LUMO)
    126                          0.0060175               0.1637
    127                          0.0104961               0.2856
    128                          0.0255371               0.6949
    129                          0.0271414               0.7386
    130                          0.0361284               0.9831
    131                          0.0419337               1.1411
    132                          0.0496435               1.3509
    133                          0.0565288               1.5382
    134                          0.1205457               3.2802
    135                          0.1294043               3.5213
    ...                                ...                  ...
    226                          0.7769890              21.1429
------------------------------------------------------------------
               HL-Gap            0.3225186 Eh            8.7762 eV
------------------------------------------------------------------

Atomic charges and shell populations (in atomic units):
-----------------------------------------------------------------
     #    Z                q          p(s)       p(p)       p(d)
-----------------------------------------------------------------
     1    7 N      -0.274939      1.373313   3.901627
     2    6 C      -0.023086      1.118052   2.905034
     3    6 C       0.436876      1.087608   2.475516
     4    8 O      -0.500626      1.848539   4.652087
     5    7 N      -0.345390      1.378937   3.966453
     6    6 C      -0.004512      1.127934   2.876577
     7    6 C      -0.062688      1.145389   2.917299
     8    6 C       0.421077      1.110024   2.468899
     9    6 C      -0.177558      1.160519   3.017040
    10    6 C      -0.021213      1.130580   2.890633
    11    8 O      -0.511984      1.848947   4.663038
    12    6 C      -0.167470      1.155012   3.012458
    13    7 N      -0.311567      1.403829   3.907738
    14    6 C      -0.108909      1.181782   2.927127
    15    6 C       0.405557      1.095994   2.498449
    16   16 S      -0.251067      1.874326   4.327060   0.049681
    17    6 C      -0.053941      1.141037   2.912904
    18    8 O      -0.548889      1.856234   4.692655
    19    7 N      -0.312932      1.349422   3.963510
    20    6 C       0.380539      1.102685   2.516776
    21    6 C      -0.003290      1.123810   2.879480
    22    8 O      -0.591012      1.861134   4.729878
    23    7 N      -0.322611      1.358642   3.963969
    24    6 C      -0.238353      1.177830   3.060523
    25    6 C       0.420158      1.081520   2.498321
    26    6 C      -0.028099      1.145010   2.883089
    27    8 O      -0.541257      1.855067   4.686190
    28    7 N      -0.364022      1.381956   3.982066
    29    6 C       0.107987      1.132910   2.759103
    30    6 C       0.397226      1.113066   2.489708
    31    8 O      -0.545517      1.805106   4.740411
    32    6 C      -0.280851      1.172951   3.107901
    33    6 C      -0.017472      1.133654   2.883819
    34    8 O      -0.535892      1.855761   4.680131
    35    7 N      -0.309963      1.361097   3.948866
    36    6 C       0.088029      1.105855   2.806116
    37    6 C       0.407563      1.106695   2.485742
    38    8 O      -0.580964      1.815889   4.765075
    39    6 C      -0.276480      1.154522   3.121958
    40    8 O      -0.556908      1.847467   4.709442
    41    6 C      -0.090172      1.141972   2.948200
    42    6 C      -0.257146      1.177743   3.079403
    43    6 C      -0.177049      1.139983   3.037066
    44    6 C      -0.256805      1.154503   3.102301
    45    1 H       0.137495      0.862505
    46    1 H       0.288124      0.711876
    47    1 H       0.119454      0.880546
    48    1 H       0.101279      0.898721
    49    1 H       0.099851      0.900149
    50    1 H       0.110047      0.889953
    51    1 H       0.104084      0.895916
    52    1 H       0.121226      0.878774
    53    1 H       0.120347      0.879653
    54    1 H       0.108282      0.891718
    55    1 H       0.285102      0.714898
    56    1 H       0.137197      0.862803
    57    1 H       0.101983      0.898017
    58    1 H       0.168994      0.831006
    59    1 H       0.128813      0.871187
    60    1 H       0.136207      0.863793
    61    1 H       0.271647      0.728353
    62    1 H       0.141964      0.858036
    63    1 H       0.296865      0.703135
    64    1 H       0.131881      0.868119
    65    1 H       0.083365      0.916635
    66    1 H       0.114891      0.885109
    67    1 H       0.161198      0.838802
    68    1 H       0.291041      0.708959
    69    1 H       0.097673      0.902327
    70    1 H       0.351577      0.648423
    71    1 H       0.107300      0.892700
    72    1 H       0.119885      0.880115
    73    1 H       0.106057      0.893943
    74    1 H       0.129722      0.870278
    75    1 H       0.271777      0.728223
    76    1 H       0.106373      0.893627
    77    1 H       0.374686      0.625314
    78    1 H       0.104912      0.895088
    79    1 H       0.122537      0.877463
    80    1 H       0.103099      0.896901
    81    1 H       0.091273      0.908727
    82    1 H       0.114026      0.885974
    83    1 H       0.082354      0.917646
    84    1 H       0.090921      0.909079
    85    1 H       0.102774      0.897226
    86    1 H       0.074635      0.925365
    87    1 H       0.091547      0.908453
    88    1 H       0.092622      0.907378
    89    1 H       0.088534      0.911466
-----------------------------------------------------------------


Wiberg/Mayer (AO) data.
largest (>0.10) Wiberg bond orders for each atom

 ---------------------------------------------------------------------------
     #   Z sym  total        # sym  WBO       # sym  WBO       # sym  WBO
 ---------------------------------------------------------------------------
     1   7 N    3.330 --     8 C    1.151     2 C    0.960     7 C    0.946
                            11 C    0.146
     2   6 C    3.930 --    12 C    0.981     1 N    0.960    45 N    0.934
                             3 C    0.908
     3   6 C    3.873 --     4 C    1.711     5 N    1.183     2 C    0.908
     4   8 C    1.998 --     3 C    1.711     5 N    0.162
     5   7 N    3.293 --     3 C    1.183     6 C    0.984    46 N    0.855
                             4 C    0.162
     6   6 C    3.946 --     5 N    0.984    41 C    0.967    47 N    0.937
                            37 C    0.917
     7   6 C    3.918 --     9 C    0.997    48 N    0.956    49 N    0.954
                             1 N    0.946
     8   6 C    3.859 --    11 C    1.714     1 N    1.151    10 C    0.900
     9   6 C    3.959 --    12 C    1.001     7 C    0.997    51 N    0.962
                            50 N    0.961
    10   6 C    3.941 --    14 C    0.989    13 N    0.976    52 N    0.930
                             8 C    0.900
    11   8 C    1.986 --     8 C    1.714     1 N    0.146
    12   6 C    3.956 --     9 C    1.001     2 C    0.981    53 N    0.958
                            54 N    0.956
    13   7 N    3.296 --    15 C    1.230    10 C    0.976    55 N    0.863
                            18 C    0.143
    14   6 C    3.929 --    16 O    0.992    10 C    0.989    57 N    0.952
                            56 N    0.945
    15   6 C    3.877 --    18 C    1.647    13 N    1.230    17 C    0.937
    16  16 O    2.013 --    14 C    0.992    58 N    0.958
    17   6 C    3.903 --    19 N    0.953    59 N    0.953    60 N    0.950
                            15 C    0.937
    18   8 C    1.916 --    15 C    1.647    13 N    0.143
    19   7 N    3.368 --    20 C    1.276    17 C    0.953    61 N    0.887
                            22 C    0.154
    20   6 C    3.881 --    22 C    1.553    19 N    1.276    21 C    0.972
    21   6 C    3.930 --    20 C    0.972    23 N    0.961    24 C    0.957
                            62 N    0.932
    22   8 C    1.853 --    20 C    1.553    19 N    0.154
    23   7 N    3.338 --    25 C    1.252    21 C    0.961    63 N    0.862
                            27 C    0.174
    24   6 C    3.940 --    66 N    0.969    65 N    0.969    64 N    0.961
                            21 C    0.957
    25   6 C    3.890 --    27 C    1.634    23 N    1.252    26 C    0.947
    26   6 C    3.906 --    25 C    0.947    28 N    0.941    29 C    0.934
                            67 N    0.931
    27   8 C    1.923 --    25 C    1.634    23 N    0.174
    28   7 N    3.327 --    30 C    1.267    26 C    0.941    68 N    0.839
                            34 C    0.177
    29   6 C    3.894 --    32 C    0.994    31 C    0.965    69 N    0.943
                            26 C    0.934
    30   6 C    3.884 --    34 C    1.649    28 N    1.267    33 C    0.895
    31   8 C    1.905 --    29 C    0.965    70 N    0.855
    32   6 C    3.951 --    29 C    0.994    73 N    0.972    71 N    0.970
                            72 N    0.969
    33   6 C    3.925 --    36 C    0.988    74 N    0.942    35 N    0.939
                            30 C    0.895
    34   8 C    1.943 --    30 C    1.649    28 N    0.177
    35   7 N    3.376 --    37 C    1.279    33 C    0.939    75 N    0.890
                            40 C    0.172
    36   6 C    3.914 --    39 C    1.014    33 C    0.988    76 N    0.935
                            38 C    0.935
    37   6 C    3.862 --    40 C    1.584    35 N    1.279     6 C    0.917
    38   8 C    1.898 --    36 C    0.935    77 N    0.796
    39   6 C    3.952 --    36 C    1.014    80 N    0.969    79 N    0.963
                            78 N    0.960
    40   8 C    1.960 --    37 C    1.584    35 N    0.172
    41   6 C    3.971 --    43 C    0.997    42 C    0.983     6 C    0.967
                            81 N    0.948
    42   6 C    3.952 --    41 C    0.983    83 N    0.977    84 N    0.975
                            82 N    0.971
    43   6 C    3.969 --    44 C    1.029    41 C    0.997    85 N    0.954
                            86 N    0.954
    44   6 C    3.964 --    43 C    1.029    87 N    0.974    89 N    0.973
                            88 N    0.970
    45   1 N    0.981 --     2 C    0.934
    46   1 N    0.917 --     5 N    0.855
    47   1 N    0.986 --     6 C    0.937
    48   1 N    0.990 --     7 C    0.956
    49   1 N    0.990 --     7 C    0.954
    50   1 N    0.988 --     9 C    0.961
    51   1 N    0.989 --     9 C    0.962
    52   1 N    0.985 --    10 C    0.930
    53   1 N    0.986 --    12 C    0.958
    54   1 N    0.988 --    12 C    0.956
    55   1 N    0.919 --    13 N    0.863
    56   1 N    0.981 --    14 C    0.945
    57   1 N    0.990 --    14 C    0.952
    58   1 N    0.971 --    16 O    0.958
    59   1 N    0.983 --    17 C    0.953
    60   1 N    0.981 --    17 C    0.950
    61   1 N    0.926 --    19 N    0.887
    62   1 N    0.980 --    21 C    0.932
    63   1 N    0.912 --    23 N    0.862
    64   1 N    0.983 --    24 C    0.961
    65   1 N    0.993 --    24 C    0.969
    66   1 N    0.987 --    24 C    0.969
    67   1 N    0.974 --    26 C    0.931
    68   1 N    0.915 --    28 N    0.839
    69   1 N    0.990 --    29 C    0.943
    70   1 N    0.876 --    31 C    0.855
    71   1 N    0.988 --    32 C    0.970
    72   1 N    0.986 --    32 C    0.969
    73   1 N    0.989 --    32 C    0.972
    74   1 N    0.983 --    33 C    0.942
    75   1 N    0.926 --    35 N    0.890
    76   1 N    0.989 --    36 C    0.935
    77   1 N    0.860 --    38 C    0.796
    78   1 N    0.989 --    39 C    0.960
    79   1 N    0.985 --    39 C    0.963
    80   1 N    0.989 --    39 C    0.969
    81   1 N    0.992 --    41 C    0.948
    82   1 N    0.987 --    42 C    0.971
    83   1 N    0.993 --    42 C    0.977
    84   1 N    0.992 --    42 C    0.975
    85   1 N    0.989 --    43 C    0.954
    86   1 N    0.994 --    43 C    0.954
    87   1 N    0.992 --    44 C    0.974
    88   1 N    0.991 --    44 C    0.970
    89   1 N    0.992 --    44 C    0.973
 ---------------------------------------------------------------------------

Topologies differ in total number of bonds
Writing topology from bond orders to xtbtopo.mol

Atomic dipole moments (in atomic units):
---------------------------------------------------------
     #    Z                 x            y            z
---------------------------------------------------------
           total     2.500554    -0.791358     1.419567
---------------------------------------------------------
         |total|     2.982313     7.580283 Debye


           -------------------------------------------------
          | TOTAL ENERGY            -2514.523218269387 Eh   |
          | GRADIENT NORM               0.344918514945 Eh/α |
           -------------------------------------------------

------------------------------------------------------------------------
 * finished run on 2026/05/23 at 12:49:32.995     
------------------------------------------------------------------------
 total:
 * wall-time:     0 d,  0 h,  0 min, 10.559 sec
 *  cpu-time:     0 d,  0 h,  0 min, 28.638 sec
 * ratio c/w:     2.712 speedup
 SCF:
 * wall-time:     0 d,  0 h,  0 min, 10.265 sec
 *  cpu-time:     0 d,  0 h,  0 min, 28.365 sec
 * ratio c/w:     2.763 speedup

normal termination of xtb
