      -----------------------------------------------------------      
     |                   =====================                   |     
     |                           x T B                           |     
     |                   =====================                   |     
     |                         S. Grimme                         |     
     |          Mulliken Center for Theoretical Chemistry        |     
     |                    University of Bonn                     |     
      -----------------------------------------------------------      

   * xtb version 6.7.1 (edcfbbe) compiled by 'albert@albert-system' on 2024-07-22

   xtb is free software: you can redistribute it and/or modify it under
   the terms of the GNU Lesser General Public License as published by
   the Free Software Foundation, either version 3 of the License, or
   (at your option) any later version.
   
   xtb is distributed in the hope that it will be useful,
   but WITHOUT ANY WARRANTY; without even the implied warranty of
   MERCHANTABILITY or FITNESS FOR A PARTICULAR PURPOSE.  See the
   GNU Lesser General Public License for more details.
   
   Cite this work as:
   * C. Bannwarth, E. Caldeweyher, S. Ehlert, A. Hansen, P. Pracht,
     J. Seibert, S. Spicher, S. Grimme, WIREs Comput. Mol. Sci., 2020, 11,
     e01493. DOI: 10.1002/wcms.1493
   
   for GFN2-xTB:
   * C. Bannwarth, S. Ehlert and S. Grimme., J. Chem. Theory Comput., 2019,
     15, 1652-1671. DOI: 10.1021/acs.jctc.8b01176
   for GFN1-xTB:
   * S. Grimme, C. Bannwarth, P. Shushkov, J. Chem. Theory Comput., 2017,
     13, 1989-2009. DOI: 10.1021/acs.jctc.7b00118
   for GFN0-xTB:
   * P. Pracht, E. Caldeweyher, S. Ehlert, S. Grimme, ChemRxiv, 2019, preprint.
     DOI: 10.26434/chemrxiv.8326202.v1
   for GFN-FF:
   * S. Spicher and S. Grimme, Angew. Chem. Int. Ed., 2020, 59, 15665-15673.
     DOI: 10.1002/anie.202004239
   
   for ALPB and GBSA implicit solvation:
   * S. Ehlert, M. Stahn, S. Spicher, S. Grimme, J. Chem. Theory Comput.,
     2021, 17, 4250-4261. DOI: 10.1021/acs.jctc.1c00471
   
   for ddCOSMO and CPCM-X implicit solvation:
   * M. Stahn, S. Ehlert, S. Grimme, J. Phys. Chem. A,
     2023, XX, XXXX-XXXX. DOI: 10.1021/acs.jpca.3c04382
   
   for DFT-D4:
   * E. Caldeweyher, C. Bannwarth and S. Grimme, J. Chem. Phys., 2017,
     147, 034112. DOI: 10.1063/1.4993215
   * E. Caldeweyher, S. Ehlert, A. Hansen, H. Neugebauer, S. Spicher,
     C. Bannwarth and S. Grimme, J. Chem. Phys., 2019, 150, 154122.
     DOI: 10.1063/1.5090222
   * E. Caldeweyher, J.-M. Mewes, S. Ehlert and S. Grimme, Phys. Chem. Chem. Phys.
     2020, 22, 8499-8512. DOI: 10.1039/D0CP00502A
   
   for sTDA-xTB:
   * S. Grimme and C. Bannwarth, J. Chem. Phys., 2016, 145, 054103.
     DOI: 10.1063/1.4959605
   
   in the mass-spec context:
   * V. Asgeirsson, C. Bauer and S. Grimme, Chem. Sci., 2017, 8, 4879.
     DOI: 10.1039/c7sc00601b
   * J. Koopman and S. Grimme, ACS Omega 2019, 4, 12, 15120-15133.
     DOI: 10.1021/acsomega.9b02011
   
   for metadynamics refer to:
   * S. Grimme, J. Chem. Theory Comput., 2019, 155, 2847-2862
     DOI: 10.1021/acs.jctc.9b00143
   
   for SPH calculations refer to:
   * S. Spicher and S. Grimme, J. Chem. Theory Comput., 2021, 17, 1701-1714
     DOI: 10.1021/acs.jctc.0c01306
   
   for ONIOM refer to:
   * C. Plett, A. Katbashev, S. Ehlert, S. Grimme, M. Bursch,
     Phys. Chem. Chem. Phys., 2023, 25, 17860-17868. DOI: 10.1039/D3CP02178E
   
   for DIPRO refer to:
   * J. Kohn, N. Gildemeister, S. Grimme, D. Fazzi, A. Hansen,
     J. Chem. Phys., 2023, just accepted.
   
   for PTB refer to:
   * S. Grimme, M. Mueller, A. Hansen, J. Chem. Phys., 2023, 158, 124111.
     DOI: 10.1063/5.0137838
   
   with help from (in alphabetical order)
   P. Atkinson, C. Bannwarth, F. Bohle, G. Brandenburg, E. Caldeweyher
   M. Checinski, S. Dohm, S. Ehlert, S. Ehrlich, I. Gerasimov, C. Hölzer
   A. Katbashev, J. Kohn, J. Koopman, C. Lavigne, S. Lehtola, F. März, M. Müller,
   F. Musil, H. Neugebauer, J. Pisarek, C. Plett, P. Pracht, F. Pultar,
   J. Seibert, P. Shushkov, S. Spicher, M. Stahn, M. Steiner, T. Strunk,
   J. Stückrath, T. Rose, and J. Unsleber
   
 * started run on 2026/05/23 at 12:32:24.417     
   ID    Z sym.   atoms
    1    7 N      1, 5, 10, 17, 18, 26, 33, 36, 42, 49, 54
    2    6 C      2, 3, 6-8, 11-14, 19-22, 24, 25, 27-30, 32, 34, 37, 39, 40,
                  43-45, 47, 50-52, 55
    3    8 O      4, 9, 15, 16, 23, 31, 35, 38, 41, 46, 48, 53, 56
    4    1 H      57-109

           -------------------------------------------------
          |                Calculation Setup                |
           -------------------------------------------------

          program call               : /home/xchen/software/xtb-6.7.1/xtb-dist/bin/xtb /home/xchen/Test/benchmark/md_sampled/08_7_0366_0/snap_0044.xyz --charge 0 --gfn 2 --norestart
          coordinate file            : /home/xchen/Test/benchmark/md_sampled/08_7_0366_0/snap_0044.xyz
          omp threads                :                    48


           -------------------------------------------------
          |                 G F N 2 - x T B                 |
           -------------------------------------------------

        Reference                      10.1021/acs.jctc.8b01176
      * Hamiltonian:
        H0-scaling (s, p, d)           1.850000    2.230000    2.230000
        zeta-weighting                 0.500000
      * Dispersion:
        s8                             2.700000
        a1                             0.520000
        a2                             5.000000
        s9                             5.000000
      * Repulsion:
        kExp                           1.500000    1.000000
        rExp                           1.000000
      * Coulomb:
        alpha                          2.000000
        third order                    shell-resolved
        anisotropic                    true
        a3                             3.000000
        a5                             4.000000
        cn-shift                       1.200000
        cn-exp                         4.000000
        max-rad                        5.000000


          ...................................................
          :                      SETUP                      :
          :.................................................:
          :  # basis functions                 277          :
          :  # atomic orbitals                 277          :
          :  # shells                          165          :
          :  # electrons                       314          :
          :  max. iterations                   250          :
          :  Hamiltonian                  GFN2-xTB          :
          :  restarted?                      false          :
          :  GBSA solvation                  false          :
          :  PC potential                    false          :
          :  electronic temp.          300.0000000     K    :
          :  accuracy                    1.0000000          :
          :  -> integral cutoff          0.2500000E+02      :
          :  -> integral neglect         0.1000000E-07      :
          :  -> SCF convergence          0.1000000E-05 Eh   :
          :  -> wf. convergence          0.1000000E-03 e    :
          :  Broyden damping             0.4000000          :
          :  net charge                          0          :
          :  unpaired electrons                  0          :
          ...................................................

 iter      E             dE          RMSdq      gap      omega  full diag
   1   -181.8840639 -0.181884E+03  0.440E+00    3.70       0.0  T
   2   -182.3971123 -0.513048E+00  0.231E+00    3.52       1.0  T
   3   -182.4217980 -0.246857E-01  0.128E+00    3.69       1.0  T
   4   -182.4264404 -0.464236E-02  0.240E-01    3.46       1.0  T
   5   -182.4310306 -0.459020E-02  0.968E-02    3.57       1.0  T
   6   -182.4310946 -0.640204E-04  0.413E-02    3.57       1.0  T
   7   -182.4311128 -0.181916E-04  0.148E-02    3.57       1.0  T
   8   -182.4311193 -0.648686E-05  0.575E-03    3.57       1.7  T
   9   -182.4311200 -0.712104E-06  0.232E-03    3.57       4.1  T
  10   -182.4311200 -0.697907E-07  0.997E-04    3.57       9.6  T
  11   -182.4311201 -0.311238E-07  0.275E-04    3.57      34.9  T

   *** convergence criteria satisfied after 11 iterations ***

         #    Occupation            Energy/Eh            Energy/eV
      -------------------------------------------------------------
         1        2.0000           -0.7270780             -19.7848
       ...           ...                  ...                  ...
       151        2.0000           -0.4046084             -11.0100
       152        2.0000           -0.4011030             -10.9146
       153        2.0000           -0.3964063             -10.7868
       154        2.0000           -0.3923635             -10.6768
       155        2.0000           -0.3919992             -10.6668
       156        2.0000           -0.3910780             -10.6418
       157        2.0000           -0.3824795             -10.4078 (HOMO)
       158                         -0.2513459              -6.8395 (LUMO)
       159                         -0.2444812              -6.6527
       160                         -0.2427351              -6.6052
       161                         -0.2403087              -6.5391
       162                         -0.2387554              -6.4969
       ...                                ...                  ...
       277                          0.6933831              18.8679
      -------------------------------------------------------------
                  HL-Gap            0.1311337 Eh            3.5683 eV
             Fermi-level           -0.3169127 Eh           -8.6236 eV

 SCC (total)                   0 d,  0 h,  0 min, 15.408 sec
 SCC setup                      ...        0 min,  0.016 sec (  0.106%)
 Dispersion                     ...        0 min,  0.100 sec (  0.648%)
 classical contributions        ...        0 min,  0.004 sec (  0.029%)
 integral evaluation            ...        0 min,  0.516 sec (  3.347%)
 iterations                     ...        0 min, 13.509 sec ( 87.673%)
 molecular gradient             ...        0 min,  1.246 sec (  8.085%)
 printout                       ...        0 min,  0.017 sec (  0.111%)

         :::::::::::::::::::::::::::::::::::::::::::::::::::::
         ::                     SUMMARY                     ::
         :::::::::::::::::::::::::::::::::::::::::::::::::::::
         :: total energy            -180.505718169147 Eh    ::
         :: gradient norm              0.389980395582 Eh/a0 ::
         :: HOMO-LUMO gap              3.568328403170 eV    ::
         ::.................................................::
         :: SCC energy              -182.422483016854 Eh    ::
         :: -> isotropic ES            0.474506938404 Eh    ::
         :: -> anisotropic ES          0.001235798586 Eh    ::
         :: -> anisotropic XC          0.046529696754 Eh    ::
         :: -> dispersion             -0.134596203911 Eh    ::
         :: repulsion energy           1.916764847707 Eh    ::
         :: add. restraining           0.000000000000 Eh    ::
         :: total charge              -0.000000000000 e     ::
         :::::::::::::::::::::::::::::::::::::::::::::::::::::

           -------------------------------------------------
          |                Property Printout                |
           -------------------------------------------------

    * Orbital Energies and Occupations

         #    Occupation            Energy/Eh            Energy/eV
      -------------------------------------------------------------
         1        2.0000           -0.7270780             -19.7848
       ...           ...                  ...                  ...
       145        2.0000           -0.4199898             -11.4285
       146        2.0000           -0.4143132             -11.2740
       147        2.0000           -0.4114936             -11.1973
       148        2.0000           -0.4112391             -11.1904
       149        2.0000           -0.4085509             -11.1172
       150        2.0000           -0.4069660             -11.0741
       151        2.0000           -0.4046084             -11.0100
       152        2.0000           -0.4011030             -10.9146
       153        2.0000           -0.3964063             -10.7868
       154        2.0000           -0.3923635             -10.6768
       155        2.0000           -0.3919992             -10.6668
       156        2.0000           -0.3910780             -10.6418
       157        2.0000           -0.3824795             -10.4078 (HOMO)
       158                         -0.2513459              -6.8395 (LUMO)
       159                         -0.2444812              -6.6527
       160                         -0.2427351              -6.6052
       161                         -0.2403087              -6.5391
       162                         -0.2387554              -6.4969
       163                         -0.2342335              -6.3738
       164                         -0.2315020              -6.2995
       165                         -0.2300469              -6.2599
       166                         -0.2267477              -6.1701
       167                         -0.2192885              -5.9671
       168                         -0.2132994              -5.8042
       ...                                ...                  ...
       277                          0.6933831              18.8679
      -------------------------------------------------------------
                  HL-Gap            0.1311337 Eh            3.5683 eV
             Fermi-level           -0.3169127 Eh           -8.6236 eV

     #   Z          covCN         q      C6AA      α(0)
     1   7 N        2.686    -0.202    25.390     7.484
     2   6 C        3.774     0.011    20.419     6.439
     3   6 C        2.748     0.276    22.325     7.737
     4   8 O        0.859    -0.422    22.135     6.308
     5   7 N        2.701    -0.212    25.607     7.516
     6   6 C        3.784     0.020    20.259     6.411
     7   6 C        2.760     0.265    22.530     7.773
     8   6 C        3.794     0.043    19.861     6.346
     9   8 O        0.857    -0.430    22.290     6.330
    10   7 N        2.692    -0.199    25.329     7.475
    11   6 C        3.791    -0.096    22.338     6.731
    12   6 C        2.739     0.261    22.605     7.785
    13   6 C        2.741     0.286    22.155     7.707
    14   6 C        3.777     0.024    20.197     6.403
    15   8 O        0.861    -0.386    21.405     6.203
    16   8 O        0.857    -0.388    21.447     6.209
    17   7 N        2.629    -0.305    27.853     7.838
    18   7 N        2.675    -0.177    24.825     7.400
    19   6 C        3.801    -0.075    21.937     6.668
    20   6 C        2.733     0.258    22.662     7.794
    21   6 C        3.836    -0.012    20.771     6.484
    22   6 C        3.800     0.018    20.265     6.409
    23   8 O        0.857    -0.418    22.047     6.295
    24   6 C        3.752    -0.118    22.829     6.814
    25   6 C        3.751    -0.110    22.665     6.789
    26   7 N        2.684    -0.204    25.434     7.490
    27   6 C        3.805    -0.054    21.545     6.608
    28   6 C        2.760     0.268    22.470     7.763
    29   6 C        3.784    -0.089    22.209     6.713
    30   6 C        3.786     0.006    20.486     6.447
    31   8 O        0.857    -0.415    21.991     6.287
    32   6 C        2.744     0.276    22.337     7.739
    33   7 N        2.680    -0.195    25.242     7.462
    34   6 C        3.727     0.112    18.843     6.197
    35   8 O        0.864    -0.474    23.207     6.459
    36   7 N        2.635    -0.249    26.484     7.643
    37   6 C        2.749     0.288    22.110     7.699
    38   8 O        1.654    -0.467    22.193     6.359
    39   6 C        3.741    -0.127    23.010     6.844
    40   6 C        3.798     0.026    20.136     6.389
    41   8 O        0.863    -0.410    21.886     6.272
    42   7 N        2.693    -0.167    24.615     7.369
    43   6 C        3.812    -0.069    21.805     6.647
    44   6 C        2.769     0.287    22.145     7.707
    45   6 C        3.791    -0.092    22.260     6.719
    46   8 O        0.860    -0.455    22.811     6.403
    47   6 C        2.749     0.272    22.407     7.751
    48   8 O        0.860    -0.439    22.475     6.356
    49   7 N        2.633    -0.282    27.280     7.757
    50   6 C        3.798    -0.069    21.824     6.652
    51   6 C        3.805    -0.089    22.191     6.706
    52   6 C        2.754     0.285    22.163     7.709
    53   8 O        0.858    -0.400    21.688     6.244
    54   7 N        2.639    -0.336    28.656     7.950
    55   6 C        3.654     0.074    19.632     6.362
    56   8 O        1.658    -0.418    21.195     6.215
    57   1 H        0.858     0.193     1.144     1.675
    58   1 H        0.928     0.076     2.019     2.222
    59   1 H        0.862     0.185     1.187     1.706
    60   1 H        0.923     0.084     1.937     2.177
    61   1 H        0.925     0.087     1.909     2.161
    62   1 H        0.859     0.165     1.301     1.787
    63   1 H        0.925     0.079     1.993     2.207
    64   1 H        0.909     0.066     2.129     2.283
    65   1 H        0.927     0.090     1.874     2.141
    66   1 H        0.862     0.200     1.105     1.646
    67   1 H        0.854     0.189     1.165     1.691
    68   1 H        0.858     0.194     1.139     1.672
    69   1 H        0.923     0.055     2.262     2.352
    70   1 H        0.922     0.040     2.455     2.450
    71   1 H        0.922     0.020     2.729     2.584
    72   1 H        0.929     0.099     1.795     2.095
    73   1 H        0.927     0.044     2.392     2.418
    74   1 H        0.925     0.044     2.398     2.422
    75   1 H        0.922     0.042     2.420     2.433
    76   1 H        0.922     0.033     2.551     2.498
    77   1 H        0.919     0.036     2.499     2.472
    78   1 H        0.927     0.046     2.365     2.405
    79   1 H        0.858     0.192     1.150     1.680
    80   1 H        0.926     0.074     2.039     2.233
    81   1 H        0.920     0.070     2.087     2.259
    82   1 H        0.909     0.056     2.249     2.346
    83   1 H        0.925     0.062     2.177     2.307
    84   1 H        0.928     0.096     1.823     2.111
    85   1 H        0.861     0.193     1.142     1.674
    86   1 H        0.923     0.039     2.463     2.454
    87   1 H        0.860     0.202     1.093     1.638
    88   1 H        0.856     0.171     1.266     1.763
    89   1 H        0.806     0.317     0.672     1.287
    90   1 H        0.913     0.045     2.385     2.416
    91   1 H        0.926     0.066     2.130     2.282
    92   1 H        0.926     0.064     2.149     2.293
    93   1 H        0.919     0.073     2.051     2.240
    94   1 H        0.861     0.176     1.237     1.743
    95   1 H        0.921     0.058     2.222     2.331
    96   1 H        0.925     0.063     2.168     2.303
    97   1 H        0.920     0.034     2.536     2.491
    98   1 H        0.925     0.107     1.725     2.054
    99   1 H        0.857     0.195     1.131     1.666
   100   1 H        0.862     0.182     1.200     1.716
   101   1 H        0.921     0.081     1.971     2.196
   102   1 H        0.924     0.085     1.925     2.170
   103   1 H        0.917     0.086     1.919     2.167
   104   1 H        0.925     0.057     2.233     2.337
   105   1 H        0.861     0.181     1.209     1.722
   106   1 H        0.862     0.204     1.086     1.632
   107   1 H        0.913     0.029     2.599     2.522
   108   1 H        0.921     0.059     2.217     2.329
   109   1 H        0.807     0.309     0.694     1.308

 Mol. C6AA /au·bohr⁶  :     112970.269477
 Mol. C8AA /au·bohr⁸  :    2499787.030058
 Mol. α(0) /au        :        499.431208


Wiberg/Mayer (AO) data.
largest (>0.10) Wiberg bond orders for each atom

 ---------------------------------------------------------------------------
     #   Z sym  total        # sym  WBO       # sym  WBO       # sym  WBO
 ---------------------------------------------------------------------------
     1   7 N    3.336 --     7 C    1.201     2 C    0.976    57 H    0.907
                             9 O    0.166
     2   6 C    3.964 --     1 N    0.976    58 H    0.966    50 C    0.952
                             3 C    0.951
     3   6 C    3.940 --     4 O    1.700     5 N    1.206     2 C    0.951
     4   8 O    2.038 --     3 C    1.700     5 N    0.182
     5   7 N    3.386 --     3 C    1.206     6 C    0.981    59 H    0.938
                             4 O    0.182
     6   6 C    3.964 --     5 N    0.981    44 C    0.976    60 H    0.949
                            55 C    0.936
     7   6 C    3.943 --     9 O    1.715     1 N    1.201     8 C    0.941
     8   6 C    3.969 --    10 N    1.001    11 C    0.967    61 H    0.943
                             7 C    0.941
     9   8 O    1.992 --     7 C    1.715     1 N    0.166
    10   7 N    3.391 --    12 C    1.178     8 C    1.001    62 H    0.927
                            15 O    0.184
    11   6 C    3.988 --    63 H    0.972     8 C    0.967    64 H    0.959
                            13 C    0.958
    12   6 C    3.934 --    15 O    1.770    10 N    1.178    14 C    0.891
    13   6 C    3.945 --    16 O    1.776    17 N    1.177    11 C    0.958
    14   6 C    3.969 --    19 C    1.011    18 N    0.989    65 H    0.940
                            12 C    0.891
    15   8 O    2.076 --    12 C    1.770    10 N    0.184
    16   8 O    2.050 --    13 C    1.776    17 N    0.166
    17   7 N    3.249 --    13 C    1.177    67 H    0.944    66 H    0.929
                            16 O    0.166
    18   7 N    3.424 --    20 C    1.230    14 C    0.989    68 H    0.926
                            23 O    0.193
    19   6 C    3.991 --    14 C    1.011    21 C    0.969    69 H    0.968
                            70 H    0.956
    20   6 C    3.941 --    23 O    1.719    18 N    1.230    22 C    0.913
    21   6 C    3.992 --    25 C    1.023    24 C    1.002    19 C    0.969
                            71 H    0.964
    22   6 C    3.961 --    27 C    0.996    26 N    0.977    72 H    0.943
                            20 C    0.913
    23   8 O    2.040 --    20 C    1.719    18 N    0.193
    24   6 C    3.991 --    21 C    1.002    73 H    0.986    75 H    0.986
                            74 H    0.984
    25   6 C    3.987 --    21 C    1.023    77 H    0.982    76 H    0.980
                            78 H    0.975
    26   7 N    3.380 --    28 C    1.224    22 C    0.977    79 H    0.910
                            31 O    0.182
    27   6 C    3.988 --    22 C    0.996    29 C    0.981    80 H    0.972
                            81 H    0.965
    28   6 C    3.946 --    31 O    1.719    26 N    1.224    30 C    0.920
    29   6 C    3.986 --    27 C    0.981    32 C    0.975    82 H    0.965
                            83 H    0.956
    30   6 C    3.963 --    34 C    0.979    33 N    0.968    84 H    0.954
                            28 C    0.920
    31   8 O    2.026 --    28 C    1.719    26 N    0.182
    32   6 C    3.938 --    35 O    1.649    36 N    1.280    29 C    0.975
    33   7 N    3.405 --    37 C    1.226    30 C    0.968    85 H    0.910
                            41 O    0.198
    34   6 C    3.953 --    39 C    0.995    30 C    0.979    38 O    0.974
                            86 H    0.953
    35   8 O    1.947 --    32 C    1.649    36 N    0.187
    36   7 N    3.382 --    32 C    1.280    88 H    0.946    87 H    0.935
                            35 O    0.187
    37   6 C    3.959 --    41 O    1.714    33 N    1.226    40 C    0.953
    38   8 O    1.953 --    34 C    0.974    89 H    0.885
    39   6 C    3.987 --    34 C    0.995    92 H    0.984    90 H    0.983
                            91 H    0.979
    40   6 C    3.964 --    43 C    0.992    42 N    0.958    37 C    0.953
                            93 H    0.947
    41   8 O    2.027 --    37 C    1.714    33 N    0.198
    42   7 N    3.446 --    44 C    1.265    40 C    0.958    94 H    0.942
                            46 O    0.197
    43   6 C    3.990 --    40 C    0.992    95 H    0.973    96 H    0.971
                            45 C    0.966
    44   6 C    3.957 --    46 O    1.645    42 N    1.265     6 C    0.976
    45   6 C    3.980 --    47 C    0.969    43 C    0.966    97 H    0.951
                            98 H    0.945
    46   8 O    1.970 --    44 C    1.645    42 N    0.197
    47   6 C    3.936 --    48 O    1.703    49 N    1.226    45 C    0.969
    48   8 O    2.000 --    47 C    1.703    49 N    0.194
    49   7 N    3.350 --    47 C    1.226   100 H    0.949    99 H    0.941
                            48 O    0.194
    50   6 C    3.976 --    51 C    0.995   101 H    0.971   102 H    0.966
                             2 C    0.952
    51   6 C    3.995 --    52 C    1.008    50 C    0.995   104 H    0.970
                           103 H    0.938
    52   6 C    3.946 --    53 O    1.758    54 N    1.140    51 C    1.008
    53   8 O    2.042 --    52 C    1.758    54 N    0.170
    54   7 N    3.235 --    52 C    1.140   105 H    0.945   106 H    0.943
                            53 O    0.170
    55   6 C    3.957 --    56 O    1.031   108 H    0.969   107 H    0.966
                             6 C    0.936
    56   8 O    1.993 --    55 C    1.031   109 H    0.892
    57   1 H    0.963 --     1 N    0.907
    58   1 H    0.994 --     2 C    0.966
    59   1 H    0.966 --     5 N    0.938
    60   1 H    0.992 --     6 C    0.949
    61   1 H    0.992 --     8 C    0.943
    62   1 H    0.973 --    10 N    0.927
    63   1 H    0.994 --    11 C    0.972
    64   1 H    0.995 --    11 C    0.959
    65   1 H    0.991 --    14 C    0.940
    66   1 H    0.960 --    17 N    0.929
    67   1 H    0.964 --    17 N    0.944
    68   1 H    0.962 --    18 N    0.926
    69   1 H    0.997 --    19 C    0.968
    70   1 H    0.998 --    19 C    0.956
    71   1 H    1.000 --    21 C    0.964
    72   1 H    0.990 --    22 C    0.943
    73   1 H    0.998 --    24 C    0.986
    74   1 H    0.998 --    24 C    0.984
    75   1 H    0.998 --    24 C    0.986
    76   1 H    0.999 --    25 C    0.980
    77   1 H    0.998 --    25 C    0.982
    78   1 H    0.998 --    25 C    0.975
    79   1 H    0.963 --    26 N    0.910
    80   1 H    0.994 --    27 C    0.972
    81   1 H    0.994 --    27 C    0.965
    82   1 H    0.997 --    29 C    0.965
    83   1 H    0.996 --    29 C    0.956
    84   1 H    0.990 --    30 C    0.954
    85   1 H    0.963 --    33 N    0.910
    86   1 H    0.998 --    34 C    0.953
    87   1 H    0.958 --    36 N    0.935
    88   1 H    0.971 --    36 N    0.946
    89   1 H    0.899 --    38 O    0.885
    90   1 H    0.998 --    39 C    0.983
    91   1 H    0.996 --    39 C    0.979
    92   1 H    0.996 --    39 C    0.984
    93   1 H    0.994 --    40 C    0.947
    94   1 H    0.969 --    42 N    0.942
    95   1 H    0.996 --    43 C    0.973
    96   1 H    0.995 --    43 C    0.971
    97   1 H    0.999 --    45 C    0.951
    98   1 H    0.989 --    45 C    0.945
    99   1 H    0.962 --    49 N    0.941
   100   1 H    0.967 --    49 N    0.949
   101   1 H    0.993 --    50 C    0.971
   102   1 H    0.993 --    50 C    0.966
   103   1 H    0.992 --    51 C    0.938
   104   1 H    0.997 --    51 C    0.970
   105   1 H    0.967 --    54 N    0.945
   106   1 H    0.958 --    54 N    0.943
   107   1 H    0.999 --    55 C    0.966
   108   1 H    0.997 --    55 C    0.969
   109   1 H    0.904 --    56 O    0.892
 ---------------------------------------------------------------------------

Topologies differ in total number of bonds
Writing topology from bond orders to xtbtopo.mol

molecular dipole:
                 x           y           z       tot (Debye)
 q only:        0.040      -1.750       2.457
   full:       -0.123      -1.829       2.375       7.625
molecular quadrupole (traceless):
                xx          xy          yy          xz          yz          zz
 q only:       34.851      34.119     -17.094       9.705     -40.963     -17.757
  q+dip:       32.949      46.734     -13.418      18.849     -51.628     -19.531
   full:       33.918      46.460     -14.907      18.009     -51.532     -19.011


           -------------------------------------------------
          | TOTAL ENERGY             -180.505718169147 Eh   |
          | GRADIENT NORM               0.389980395582 Eh/α |
          | HOMO-LUMO GAP               3.568328403170 eV   |
           -------------------------------------------------

------------------------------------------------------------------------
 * finished run on 2026/05/23 at 12:32:40.545     
------------------------------------------------------------------------
 total:
 * wall-time:     0 d,  0 h,  0 min, 16.127 sec
 *  cpu-time:     0 d,  0 h,  0 min, 24.217 sec
 * ratio c/w:     1.502 speedup
 SCF:
 * wall-time:     0 d,  0 h,  0 min, 15.410 sec
 *  cpu-time:     0 d,  0 h,  0 min, 23.140 sec
 * ratio c/w:     1.502 speedup

normal termination of xtb
