      -----------------------------------------------------------      
     |                   =====================                   |     
     |                           x T B                           |     
     |                   =====================                   |     
     |                         S. Grimme                         |     
     |          Mulliken Center for Theoretical Chemistry        |     
     |                    University of Bonn                     |     
      -----------------------------------------------------------      

   * xtb version 6.7.1 (edcfbbe) compiled by 'albert@albert-system' on 2024-07-22

   xtb is free software: you can redistribute it and/or modify it under
   the terms of the GNU Lesser General Public License as published by
   the Free Software Foundation, either version 3 of the License, or
   (at your option) any later version.
   
   xtb is distributed in the hope that it will be useful,
   but WITHOUT ANY WARRANTY; without even the implied warranty of
   MERCHANTABILITY or FITNESS FOR A PARTICULAR PURPOSE.  See the
   GNU Lesser General Public License for more details.
   
   Cite this work as:
   * C. Bannwarth, E. Caldeweyher, S. Ehlert, A. Hansen, P. Pracht,
     J. Seibert, S. Spicher, S. Grimme, WIREs Comput. Mol. Sci., 2020, 11,
     e01493. DOI: 10.1002/wcms.1493
   
   for GFN2-xTB:
   * C. Bannwarth, S. Ehlert and S. Grimme., J. Chem. Theory Comput., 2019,
     15, 1652-1671. DOI: 10.1021/acs.jctc.8b01176
   for GFN1-xTB:
   * S. Grimme, C. Bannwarth, P. Shushkov, J. Chem. Theory Comput., 2017,
     13, 1989-2009. DOI: 10.1021/acs.jctc.7b00118
   for GFN0-xTB:
   * P. Pracht, E. Caldeweyher, S. Ehlert, S. Grimme, ChemRxiv, 2019, preprint.
     DOI: 10.26434/chemrxiv.8326202.v1
   for GFN-FF:
   * S. Spicher and S. Grimme, Angew. Chem. Int. Ed., 2020, 59, 15665-15673.
     DOI: 10.1002/anie.202004239
   
   for ALPB and GBSA implicit solvation:
   * S. Ehlert, M. Stahn, S. Spicher, S. Grimme, J. Chem. Theory Comput.,
     2021, 17, 4250-4261. DOI: 10.1021/acs.jctc.1c00471
   
   for ddCOSMO and CPCM-X implicit solvation:
   * M. Stahn, S. Ehlert, S. Grimme, J. Phys. Chem. A,
     2023, XX, XXXX-XXXX. DOI: 10.1021/acs.jpca.3c04382
   
   for DFT-D4:
   * E. Caldeweyher, C. Bannwarth and S. Grimme, J. Chem. Phys., 2017,
     147, 034112. DOI: 10.1063/1.4993215
   * E. Caldeweyher, S. Ehlert, A. Hansen, H. Neugebauer, S. Spicher,
     C. Bannwarth and S. Grimme, J. Chem. Phys., 2019, 150, 154122.
     DOI: 10.1063/1.5090222
   * E. Caldeweyher, J.-M. Mewes, S. Ehlert and S. Grimme, Phys. Chem. Chem. Phys.
     2020, 22, 8499-8512. DOI: 10.1039/D0CP00502A
   
   for sTDA-xTB:
   * S. Grimme and C. Bannwarth, J. Chem. Phys., 2016, 145, 054103.
     DOI: 10.1063/1.4959605
   
   in the mass-spec context:
   * V. Asgeirsson, C. Bauer and S. Grimme, Chem. Sci., 2017, 8, 4879.
     DOI: 10.1039/c7sc00601b
   * J. Koopman and S. Grimme, ACS Omega 2019, 4, 12, 15120-15133.
     DOI: 10.1021/acsomega.9b02011
   
   for metadynamics refer to:
   * S. Grimme, J. Chem. Theory Comput., 2019, 155, 2847-2862
     DOI: 10.1021/acs.jctc.9b00143
   
   for SPH calculations refer to:
   * S. Spicher and S. Grimme, J. Chem. Theory Comput., 2021, 17, 1701-1714
     DOI: 10.1021/acs.jctc.0c01306
   
   for ONIOM refer to:
   * C. Plett, A. Katbashev, S. Ehlert, S. Grimme, M. Bursch,
     Phys. Chem. Chem. Phys., 2023, 25, 17860-17868. DOI: 10.1039/D3CP02178E
   
   for DIPRO refer to:
   * J. Kohn, N. Gildemeister, S. Grimme, D. Fazzi, A. Hansen,
     J. Chem. Phys., 2023, just accepted.
   
   for PTB refer to:
   * S. Grimme, M. Mueller, A. Hansen, J. Chem. Phys., 2023, 158, 124111.
     DOI: 10.1063/5.0137838
   
   with help from (in alphabetical order)
   P. Atkinson, C. Bannwarth, F. Bohle, G. Brandenburg, E. Caldeweyher
   M. Checinski, S. Dohm, S. Ehlert, S. Ehrlich, I. Gerasimov, C. Hölzer
   A. Katbashev, J. Kohn, J. Koopman, C. Lavigne, S. Lehtola, F. März, M. Müller,
   F. Musil, H. Neugebauer, J. Pisarek, C. Plett, P. Pracht, F. Pultar,
   J. Seibert, P. Shushkov, S. Spicher, M. Stahn, M. Steiner, T. Strunk,
   J. Stückrath, T. Rose, and J. Unsleber
   
 * started run on 2026/05/23 at 12:45:00.129     
   ID    Z sym.   atoms
    1    7 N      1, 5, 10, 17, 22, 26, 27, 33, 41
    2    6 C      2, 3, 6-8, 11-14, 16, 18-21, 23, 28-30, 34-39
    3    8 O      4, 9, 15, 24, 25, 31, 32, 40
    4    1 H      42-82

           -------------------------------------------------
          |                Calculation Setup                |
           -------------------------------------------------

          program call               : /home/xchen/software/xtb-6.7.1/xtb-dist/bin/xtb /home/xchen/Test/benchmark/md_sampled/09_5_0584_0/snap_0169.xyz --charge 0 --gfn 2 --norestart
          coordinate file            : /home/xchen/Test/benchmark/md_sampled/09_5_0584_0/snap_0169.xyz
          omp threads                :                    48


           -------------------------------------------------
          |                 G F N 2 - x T B                 |
           -------------------------------------------------

        Reference                      10.1021/acs.jctc.8b01176
      * Hamiltonian:
        H0-scaling (s, p, d)           1.850000    2.230000    2.230000
        zeta-weighting                 0.500000
      * Dispersion:
        s8                             2.700000
        a1                             0.520000
        a2                             5.000000
        s9                             5.000000
      * Repulsion:
        kExp                           1.500000    1.000000
        rExp                           1.000000
      * Coulomb:
        alpha                          2.000000
        third order                    shell-resolved
        anisotropic                    true
        a3                             3.000000
        a5                             4.000000
        cn-shift                       1.200000
        cn-exp                         4.000000
        max-rad                        5.000000


          ...................................................
          :                      SETUP                      :
          :.................................................:
          :  # basis functions                 205          :
          :  # atomic orbitals                 205          :
          :  # shells                          123          :
          :  # electrons                       230          :
          :  max. iterations                   250          :
          :  Hamiltonian                  GFN2-xTB          :
          :  restarted?                      false          :
          :  GBSA solvation                  false          :
          :  PC potential                    false          :
          :  electronic temp.          300.0000000     K    :
          :  accuracy                    1.0000000          :
          :  -> integral cutoff          0.2500000E+02      :
          :  -> integral neglect         0.1000000E-07      :
          :  -> SCF convergence          0.1000000E-05 Eh   :
          :  -> wf. convergence          0.1000000E-03 e    :
          :  Broyden damping             0.4000000          :
          :  net charge                          0          :
          :  unpaired electrons                  0          :
          ...................................................

 iter      E             dE          RMSdq      gap      omega  full diag
   1   -132.1578083 -0.132158E+03  0.417E+00    3.78       0.0  T
   2   -132.5148206 -0.357012E+00  0.215E+00    3.53       1.0  T
   3   -132.5297456 -0.149250E-01  0.120E+00    3.50       1.0  T
   4   -132.5328401 -0.309454E-02  0.254E-01    3.02       1.0  T
   5   -132.5368269 -0.398674E-02  0.925E-02    3.10       1.0  T
   6   -132.5368722 -0.453514E-04  0.392E-02    3.07       1.0  T
   7   -132.5368852 -0.130183E-04  0.154E-02    3.09       1.0  T
   8   -132.5368908 -0.556663E-05  0.527E-03    3.08       2.1  T
   9   -132.5368911 -0.311545E-06  0.211E-03    3.08       5.2  T
  10   -132.5368912 -0.433517E-07  0.814E-04    3.08      13.6  T
  11   -132.5368912 -0.161250E-07  0.270E-04    3.08      40.8  T

   *** convergence criteria satisfied after 11 iterations ***

         #    Occupation            Energy/Eh            Energy/eV
      -------------------------------------------------------------
         1        2.0000           -0.7278248             -19.8051
       ...           ...                  ...                  ...
       109        2.0000           -0.4081379             -11.1060
       110        2.0000           -0.4068741             -11.0716
       111        2.0000           -0.4001802             -10.8895
       112        2.0000           -0.3939830             -10.7208
       113        2.0000           -0.3930763             -10.6962
       114        2.0000           -0.3858687             -10.5000
       115        2.0000           -0.3690739             -10.0430 (HOMO)
       116                         -0.2558462              -6.9619 (LUMO)
       117                         -0.2498466              -6.7987
       118                         -0.2452337              -6.6731
       119                         -0.2435159              -6.6264
       120                         -0.2377853              -6.4705
       ...                                ...                  ...
       205                          0.7163126              19.4919
      -------------------------------------------------------------
                  HL-Gap            0.1132277 Eh            3.0811 eV
             Fermi-level           -0.3124601 Eh           -8.5025 eV

 SCC (total)                   0 d,  0 h,  0 min, 12.526 sec
 SCC setup                      ...        0 min,  0.053 sec (  0.421%)
 Dispersion                     ...        0 min,  0.115 sec (  0.915%)
 classical contributions        ...        0 min,  0.017 sec (  0.139%)
 integral evaluation            ...        0 min,  0.529 sec (  4.224%)
 iterations                     ...        0 min, 11.245 sec ( 89.778%)
 molecular gradient             ...        0 min,  0.556 sec (  4.440%)
 printout                       ...        0 min,  0.010 sec (  0.083%)

         :::::::::::::::::::::::::::::::::::::::::::::::::::::
         ::                     SUMMARY                     ::
         :::::::::::::::::::::::::::::::::::::::::::::::::::::
         :: total energy            -131.081168070387 Eh    ::
         :: gradient norm              0.339301269139 Eh/a0 ::
         :: HOMO-LUMO gap              3.081082788232 eV    ::
         ::.................................................::
         :: SCC energy              -132.534237565588 Eh    ::
         :: -> isotropic ES            0.308215107342 Eh    ::
         :: -> anisotropic ES          0.013664035888 Eh    ::
         :: -> anisotropic XC          0.043921370538 Eh    ::
         :: -> dispersion             -0.089246313234 Eh    ::
         :: repulsion energy           1.453069495201 Eh    ::
         :: add. restraining           0.000000000000 Eh    ::
         :: total charge              -0.000000000000 e     ::
         :::::::::::::::::::::::::::::::::::::::::::::::::::::

           -------------------------------------------------
          |                Property Printout                |
           -------------------------------------------------

    * Orbital Energies and Occupations

         #    Occupation            Energy/Eh            Energy/eV
      -------------------------------------------------------------
         1        2.0000           -0.7278248             -19.8051
       ...           ...                  ...                  ...
       103        2.0000           -0.4330454             -11.7838
       104        2.0000           -0.4318277             -11.7506
       105        2.0000           -0.4308951             -11.7253
       106        2.0000           -0.4282873             -11.6543
       107        2.0000           -0.4129356             -11.2366
       108        2.0000           -0.4104709             -11.1695
       109        2.0000           -0.4081379             -11.1060
       110        2.0000           -0.4068741             -11.0716
       111        2.0000           -0.4001802             -10.8895
       112        2.0000           -0.3939830             -10.7208
       113        2.0000           -0.3930763             -10.6962
       114        2.0000           -0.3858687             -10.5000
       115        2.0000           -0.3690739             -10.0430 (HOMO)
       116                         -0.2558462              -6.9619 (LUMO)
       117                         -0.2498466              -6.7987
       118                         -0.2452337              -6.6731
       119                         -0.2435159              -6.6264
       120                         -0.2377853              -6.4705
       121                         -0.2247646              -6.1162
       122                         -0.2179718              -5.9313
       123                         -0.2115438              -5.7564
       124                         -0.0960527              -2.6137
       125                         -0.0740382              -2.0147
       126                         -0.0505519              -1.3756
       ...                                ...                  ...
       205                          0.7163126              19.4919
      -------------------------------------------------------------
                  HL-Gap            0.1132277 Eh            3.0811 eV
             Fermi-level           -0.3124601 Eh           -8.5025 eV

     #   Z          covCN         q      C6AA      α(0)
     1   7 N        2.680    -0.193    25.200     7.456
     2   6 C        3.780     0.006    20.501     6.450
     3   6 C        2.747     0.289    22.107     7.699
     4   8 O        0.861    -0.412    21.911     6.276
     5   7 N        2.663    -0.185    25.011     7.428
     6   6 C        3.769     0.009    20.465     6.447
     7   6 C        2.758     0.279    22.277     7.729
     8   6 C        3.779     0.013    20.382     6.432
     9   8 O        0.858    -0.396    21.594     6.230
    10   7 N        2.677    -0.203    25.405     7.486
    11   6 C        3.759    -0.067    21.833     6.661
    12   6 C        2.735     0.257    22.669     7.795
    13   6 C        3.793    -0.067    21.785     6.647
    14   6 C        3.804     0.031    20.057     6.376
    15   8 O        0.857    -0.400    21.686     6.244
    16   6 C        3.788    -0.064    21.733     6.640
    17   7 N        2.685    -0.121    23.644     7.222
    18   6 C        3.819    -0.097    22.332     6.725
    19   6 C        3.721     0.012    20.491     6.465
    20   6 C        2.742     0.264    22.553     7.776
    21   6 C        2.762     0.281    22.247     7.724
    22   7 N        2.626    -0.345    28.884     7.982
    23   6 C        3.791     0.018    20.285     6.414
    24   8 O        0.857    -0.471    23.158     6.452
    25   8 O        0.857    -0.439    22.472     6.356
    26   7 N        2.648    -0.283    27.310     7.761
    27   7 N        2.684    -0.209    25.544     7.506
    28   6 C        3.803    -0.105    22.495     6.752
    29   6 C        2.748     0.270    22.443     7.757
    30   6 C        2.741     0.288    22.110     7.699
    31   8 O        0.858    -0.397    21.623     6.235
    32   8 O        0.857    -0.378    21.253     6.181
    33   7 N        2.629    -0.318    28.175     7.883
    34   6 C        3.830    -0.025    20.990     6.519
    35   6 C        3.747    -0.124    22.952     6.834
    36   6 C        3.742    -0.110    22.680     6.794
    37   6 C        3.797    -0.062    21.700     6.633
    38   6 C        3.789    -0.105    22.515     6.758
    39   6 C        2.728     0.269    22.447     7.756
    40   8 O        0.856    -0.392    21.522     6.220
    41   7 N        2.628    -0.298    27.679     7.814
    42   1 H        0.858     0.191     1.153     1.682
    43   1 H        0.927     0.060     2.201     2.320
    44   1 H        0.843     0.173     1.256     1.757
    45   1 H        0.915     0.066     2.134     2.285
    46   1 H        0.928     0.085     1.926     2.170
    47   1 H        0.861     0.188     1.167     1.692
    48   1 H        0.879     0.027     2.644     2.546
    49   1 H        0.927     0.072     2.060     2.245
    50   1 H        0.919     0.040     2.454     2.450
    51   1 H        0.928     0.047     2.363     2.404
    52   1 H        0.928     0.091     1.869     2.138
    53   1 H        0.920     0.020     2.732     2.585
    54   1 H        0.917     0.028     2.617     2.530
    55   1 H        0.859     0.218     1.019     1.581
    56   1 H        0.922     0.083     1.952     2.185
    57   1 H        0.924     0.056     2.252     2.347
    58   1 H        0.908     0.023     2.687     2.564
    59   1 H        0.926     0.052     2.295     2.369
    60   1 H        0.861     0.135     1.504     1.921
    61   1 H        0.858     0.136     1.503     1.921
    62   1 H        0.928     0.092     1.864     2.135
    63   1 H        0.861     0.208     1.066     1.618
    64   1 H        0.861     0.193     1.141     1.673
    65   1 H        0.861     0.216     1.029     1.589
    66   1 H        0.928     0.070     2.083     2.257
    67   1 H        0.919     0.082     1.957     2.188
    68   1 H        0.859     0.181     1.209     1.722
    69   1 H        0.859     0.190     1.159     1.687
    70   1 H        0.927     0.061     2.182     2.310
    71   1 H        0.924     0.043     2.410     2.428
    72   1 H        0.927     0.045     2.381     2.413
    73   1 H        0.926     0.043     2.409     2.427
    74   1 H        0.921     0.033     2.541     2.493
    75   1 H        0.927     0.063     2.166     2.301
    76   1 H        0.924     0.031     2.568     2.506
    77   1 H        0.926     0.065     2.141     2.288
    78   1 H        0.926     0.060     2.200     2.320
    79   1 H        0.926     0.062     2.174     2.306
    80   1 H        0.925     0.073     2.056     2.242
    81   1 H        0.861     0.201     1.103     1.645
    82   1 H        0.858     0.177     1.230     1.738

 Mol. C6AA /au·bohr⁶  :      63069.191811
 Mol. C8AA /au·bohr⁸  :    1391765.681974
 Mol. α(0) /au        :        374.189263


Wiberg/Mayer (AO) data.
largest (>0.10) Wiberg bond orders for each atom

 ---------------------------------------------------------------------------
     #   Z sym  total        # sym  WBO       # sym  WBO       # sym  WBO
 ---------------------------------------------------------------------------
     1   7 N    3.388 --     7 C    1.203     2 C    0.998    42 H    0.917
                             9 O    0.189
     2   6 C    3.965 --     1 N    0.998    43 H    0.958    34 C    0.937
                             3 C    0.916
     3   6 C    3.945 --     4 O    1.695     5 N    1.271     2 C    0.916
     4   8 O    2.054 --     3 C    1.695     5 N    0.194
     5   7 N    3.425 --     3 C    1.271     6 C    0.944    44 H    0.931
                             4 O    0.194
     6   6 C    3.952 --    37 C    0.982    45 H    0.966     5 N    0.944
                            29 C    0.921
     7   6 C    3.949 --     9 O    1.747     1 N    1.203     8 C    0.921
     8   6 C    3.959 --    11 C    0.978    10 N    0.972    46 H    0.957
                             7 C    0.921
     9   8 O    2.065 --     7 C    1.747     1 N    0.189
    10   7 N    3.383 --    12 C    1.211     8 C    0.972    47 H    0.933
                            15 O    0.192
    11   6 C    3.984 --    13 C    0.999     8 C    0.978    48 H    0.970
                            49 H    0.957
    12   6 C    3.947 --    15 O    1.741    10 N    1.211    14 C    0.916
    13   6 C    3.993 --    16 C    0.999    11 C    0.999    51 H    0.981
                            50 H    0.973
    14   6 C    3.964 --    18 C    0.983    17 N    0.968    52 H    0.957
                            12 C    0.916
    15   8 O    2.044 --    12 C    1.741    10 N    0.192
    16   6 C    3.992 --    19 C    1.006    13 C    0.999    53 H    0.975
                            54 H    0.965
    17   7 N    3.517 --    20 C    1.365    14 C    0.968    55 H    0.918
                            24 O    0.194
    18   6 C    3.988 --    21 C    1.001    14 C    0.983    57 H    0.956
                            56 H    0.933
    19   6 C    3.982 --    22 N    1.023    16 C    1.006    58 H    0.967
                            59 H    0.958
    20   6 C    3.951 --    24 O    1.619    17 N    1.365    23 C    0.891
    21   6 C    3.956 --    25 O    1.682    26 N    1.240    18 C    1.001
    22   7 N    3.009 --    19 C    1.023    60 H    0.971    61 H    0.965
    23   6 C    3.963 --    27 N    0.993    28 C    0.966    62 H    0.952
                            20 C    0.891
    24   8 O    1.960 --    20 C    1.619    17 N    0.194
    25   8 O    1.988 --    21 C    1.682    26 N    0.196
    26   7 N    3.358 --    21 C    1.240    64 H    0.943    63 H    0.939
                            25 O    0.196
    27   7 N    3.391 --    29 C    1.217    23 C    0.993    65 H    0.905
                            31 O    0.192
    28   6 C    3.990 --    66 H    0.975    30 C    0.970    23 C    0.966
                            67 H    0.952
    29   6 C    3.947 --    31 O    1.746    27 N    1.217     6 C    0.921
    30   6 C    3.941 --    32 O    1.794    33 N    1.133    28 C    0.970
    31   8 O    2.064 --    29 C    1.746    27 N    0.192
    32   8 O    2.074 --    30 C    1.794    33 N    0.166
    33   7 N    3.218 --    30 C    1.133    69 H    0.942    68 H    0.941
                            32 O    0.166
    34   6 C    3.985 --    36 C    1.012    35 C    1.002    70 H    0.970
                             2 C    0.937
    35   6 C    3.979 --    34 C    1.002    72 H    0.983    71 H    0.982
                            73 H    0.980
    36   6 C    3.989 --    34 C    1.012    74 H    0.985    76 H    0.983
                            75 H    0.982
    37   6 C    3.990 --    38 C    0.994     6 C    0.982    77 H    0.975
                            78 H    0.969
    38   6 C    3.989 --    37 C    0.994    80 H    0.980    79 H    0.966
                            39 C    0.937
    39   6 C    3.931 --    40 O    1.783    41 N    1.172    38 C    0.937
    40   8 O    2.055 --    39 C    1.783    41 N    0.161
    41   7 N    3.247 --    39 C    1.172    82 H    0.942    81 H    0.936
                            40 O    0.161
    42   1 H    0.963 --     1 N    0.917
    43   1 H    0.996 --     2 C    0.958
    44   1 H    0.970 --     5 N    0.931
    45   1 H    0.995 --     6 C    0.966
    46   1 H    0.992 --     8 C    0.957
    47   1 H    0.964 --    10 N    0.933
    48   1 H    0.999 --    11 C    0.970
    49   1 H    0.994 --    11 C    0.957
    50   1 H    0.998 --    13 C    0.973
    51   1 H    0.998 --    13 C    0.981
    52   1 H    0.991 --    14 C    0.957
    53   1 H    0.999 --    16 C    0.975
    54   1 H    0.999 --    16 C    0.965
    55   1 H    0.952 --    17 N    0.918
    56   1 H    0.993 --    18 C    0.933
    57   1 H    0.996 --    18 C    0.956
    58   1 H    0.999 --    19 C    0.967
    59   1 H    0.997 --    19 C    0.958
    60   1 H    0.982 --    22 N    0.971
    61   1 H    0.982 --    22 N    0.965
    62   1 H    0.991 --    23 C    0.952
    63   1 H    0.956 --    26 N    0.939
    64   1 H    0.963 --    26 N    0.943
    65   1 H    0.953 --    27 N    0.905
    66   1 H    0.995 --    28 C    0.975
    67   1 H    0.993 --    28 C    0.952
    68   1 H    0.967 --    33 N    0.941
    69   1 H    0.963 --    33 N    0.942
    70   1 H    0.996 --    34 C    0.970
    71   1 H    0.998 --    35 C    0.982
    72   1 H    0.998 --    35 C    0.983
    73   1 H    0.998 --    35 C    0.980
    74   1 H    0.999 --    36 C    0.985
    75   1 H    0.996 --    36 C    0.982
    76   1 H    0.999 --    36 C    0.983
    77   1 H    0.996 --    37 C    0.975
    78   1 H    0.996 --    37 C    0.969
    79   1 H    0.996 --    38 C    0.966
    80   1 H    0.995 --    38 C    0.980
    81   1 H    0.960 --    41 N    0.936
    82   1 H    0.969 --    41 N    0.942
 ---------------------------------------------------------------------------

Topologies differ in total number of bonds
Writing topology from bond orders to xtbtopo.mol

molecular dipole:
                 x           y           z       tot (Debye)
 q only:       -2.042       1.835      -2.635
   full:       -2.652       2.101      -2.721      11.036
molecular quadrupole (traceless):
                xx          xy          yy          xz          yz          zz
 q only:       -6.110     -23.487      19.160      -1.974     -20.312     -13.049
  q+dip:      -10.901     -38.011      18.397      -4.618     -26.348      -7.495
   full:       -9.884     -37.835      18.902      -4.578     -26.379      -9.018


           -------------------------------------------------
          | TOTAL ENERGY             -131.081168070387 Eh   |
          | GRADIENT NORM               0.339301269139 Eh/α |
          | HOMO-LUMO GAP               3.081082788232 eV   |
           -------------------------------------------------

------------------------------------------------------------------------
 * finished run on 2026/05/23 at 12:45:13.332     
------------------------------------------------------------------------
 total:
 * wall-time:     0 d,  0 h,  0 min, 13.201 sec
 *  cpu-time:     0 d,  0 h,  0 min, 16.601 sec
 * ratio c/w:     1.258 speedup
 SCF:
 * wall-time:     0 d,  0 h,  0 min, 12.526 sec
 *  cpu-time:     0 d,  0 h,  0 min, 16.023 sec
 * ratio c/w:     1.279 speedup

normal termination of xtb
