      -----------------------------------------------------------      
     |                   =====================                   |     
     |                           x T B                           |     
     |                   =====================                   |     
     |                         S. Grimme                         |     
     |          Mulliken Center for Theoretical Chemistry        |     
     |                    University of Bonn                     |     
      -----------------------------------------------------------      

   * xtb version 6.7.1 (edcfbbe) compiled by 'albert@albert-system' on 2024-07-22

   xtb is free software: you can redistribute it and/or modify it under
   the terms of the GNU Lesser General Public License as published by
   the Free Software Foundation, either version 3 of the License, or
   (at your option) any later version.
   
   xtb is distributed in the hope that it will be useful,
   but WITHOUT ANY WARRANTY; without even the implied warranty of
   MERCHANTABILITY or FITNESS FOR A PARTICULAR PURPOSE.  See the
   GNU Lesser General Public License for more details.
   
   Cite this work as:
   * C. Bannwarth, E. Caldeweyher, S. Ehlert, A. Hansen, P. Pracht,
     J. Seibert, S. Spicher, S. Grimme, WIREs Comput. Mol. Sci., 2020, 11,
     e01493. DOI: 10.1002/wcms.1493
   
   for GFN2-xTB:
   * C. Bannwarth, S. Ehlert and S. Grimme., J. Chem. Theory Comput., 2019,
     15, 1652-1671. DOI: 10.1021/acs.jctc.8b01176
   for GFN1-xTB:
   * S. Grimme, C. Bannwarth, P. Shushkov, J. Chem. Theory Comput., 2017,
     13, 1989-2009. DOI: 10.1021/acs.jctc.7b00118
   for GFN0-xTB:
   * P. Pracht, E. Caldeweyher, S. Ehlert, S. Grimme, ChemRxiv, 2019, preprint.
     DOI: 10.26434/chemrxiv.8326202.v1
   for GFN-FF:
   * S. Spicher and S. Grimme, Angew. Chem. Int. Ed., 2020, 59, 15665-15673.
     DOI: 10.1002/anie.202004239
   
   for ALPB and GBSA implicit solvation:
   * S. Ehlert, M. Stahn, S. Spicher, S. Grimme, J. Chem. Theory Comput.,
     2021, 17, 4250-4261. DOI: 10.1021/acs.jctc.1c00471
   
   for ddCOSMO and CPCM-X implicit solvation:
   * M. Stahn, S. Ehlert, S. Grimme, J. Phys. Chem. A,
     2023, XX, XXXX-XXXX. DOI: 10.1021/acs.jpca.3c04382
   
   for DFT-D4:
   * E. Caldeweyher, C. Bannwarth and S. Grimme, J. Chem. Phys., 2017,
     147, 034112. DOI: 10.1063/1.4993215
   * E. Caldeweyher, S. Ehlert, A. Hansen, H. Neugebauer, S. Spicher,
     C. Bannwarth and S. Grimme, J. Chem. Phys., 2019, 150, 154122.
     DOI: 10.1063/1.5090222
   * E. Caldeweyher, J.-M. Mewes, S. Ehlert and S. Grimme, Phys. Chem. Chem. Phys.
     2020, 22, 8499-8512. DOI: 10.1039/D0CP00502A
   
   for sTDA-xTB:
   * S. Grimme and C. Bannwarth, J. Chem. Phys., 2016, 145, 054103.
     DOI: 10.1063/1.4959605
   
   in the mass-spec context:
   * V. Asgeirsson, C. Bauer and S. Grimme, Chem. Sci., 2017, 8, 4879.
     DOI: 10.1039/c7sc00601b
   * J. Koopman and S. Grimme, ACS Omega 2019, 4, 12, 15120-15133.
     DOI: 10.1021/acsomega.9b02011
   
   for metadynamics refer to:
   * S. Grimme, J. Chem. Theory Comput., 2019, 155, 2847-2862
     DOI: 10.1021/acs.jctc.9b00143
   
   for SPH calculations refer to:
   * S. Spicher and S. Grimme, J. Chem. Theory Comput., 2021, 17, 1701-1714
     DOI: 10.1021/acs.jctc.0c01306
   
   for ONIOM refer to:
   * C. Plett, A. Katbashev, S. Ehlert, S. Grimme, M. Bursch,
     Phys. Chem. Chem. Phys., 2023, 25, 17860-17868. DOI: 10.1039/D3CP02178E
   
   for DIPRO refer to:
   * J. Kohn, N. Gildemeister, S. Grimme, D. Fazzi, A. Hansen,
     J. Chem. Phys., 2023, just accepted.
   
   for PTB refer to:
   * S. Grimme, M. Mueller, A. Hansen, J. Chem. Phys., 2023, 158, 124111.
     DOI: 10.1063/5.0137838
   
   with help from (in alphabetical order)
   P. Atkinson, C. Bannwarth, F. Bohle, G. Brandenburg, E. Caldeweyher
   M. Checinski, S. Dohm, S. Ehlert, S. Ehrlich, I. Gerasimov, C. Hölzer
   A. Katbashev, J. Kohn, J. Koopman, C. Lavigne, S. Lehtola, F. März, M. Müller,
   F. Musil, H. Neugebauer, J. Pisarek, C. Plett, P. Pracht, F. Pultar,
   J. Seibert, P. Shushkov, S. Spicher, M. Stahn, M. Steiner, T. Strunk,
   J. Stückrath, T. Rose, and J. Unsleber
   
 * started run on 2026/05/23 at 12:26:59.293     
   ID    Z sym.   atoms
    1    7 N      1, 5, 10, 17, 18, 25, 30, 33
    2    6 C      2, 3, 6-8, 11-14, 19-23, 26-28, 31, 32, 34, 36-39
    3    8 O      4, 9, 15, 16, 24, 29, 35
    4    1 H      40-77

           -------------------------------------------------
          |                Calculation Setup                |
           -------------------------------------------------

          program call               : /home/xchen/software/xtb-6.7.1/xtb-dist/bin/xtb /home/xchen/Test/benchmark/md_sampled/05_5_0513_0/snap_0029.xyz --charge 0 --gfn 2 --norestart
          coordinate file            : /home/xchen/Test/benchmark/md_sampled/05_5_0513_0/snap_0029.xyz
          omp threads                :                    48


           -------------------------------------------------
          |                 G F N 2 - x T B                 |
           -------------------------------------------------

        Reference                      10.1021/acs.jctc.8b01176
      * Hamiltonian:
        H0-scaling (s, p, d)           1.850000    2.230000    2.230000
        zeta-weighting                 0.500000
      * Dispersion:
        s8                             2.700000
        a1                             0.520000
        a2                             5.000000
        s9                             5.000000
      * Repulsion:
        kExp                           1.500000    1.000000
        rExp                           1.000000
      * Coulomb:
        alpha                          2.000000
        third order                    shell-resolved
        anisotropic                    true
        a3                             3.000000
        a5                             4.000000
        cn-shift                       1.200000
        cn-exp                         4.000000
        max-rad                        5.000000


          ...................................................
          :                      SETUP                      :
          :.................................................:
          :  # basis functions                 194          :
          :  # atomic orbitals                 194          :
          :  # shells                          116          :
          :  # electrons                       216          :
          :  max. iterations                   250          :
          :  Hamiltonian                  GFN2-xTB          :
          :  restarted?                      false          :
          :  GBSA solvation                  false          :
          :  PC potential                    false          :
          :  electronic temp.          300.0000000     K    :
          :  accuracy                    1.0000000          :
          :  -> integral cutoff          0.2500000E+02      :
          :  -> integral neglect         0.1000000E-07      :
          :  -> SCF convergence          0.1000000E-05 Eh   :
          :  -> wf. convergence          0.1000000E-03 e    :
          :  Broyden damping             0.4000000          :
          :  net charge                          0          :
          :  unpaired electrons                  0          :
          ...................................................

 iter      E             dE          RMSdq      gap      omega  full diag
   1   -123.5454163 -0.123545E+03  0.412E+00    4.01       0.0  T
   2   -123.9283015 -0.382885E+00  0.226E+00    3.55       1.0  T
   3   -123.9517338 -0.234323E-01  0.129E+00    3.81       1.0  T
   4   -123.9531884 -0.145461E-02  0.307E-01    3.65       1.0  T
   5   -123.9586962 -0.550783E-02  0.103E-01    3.71       1.0  T
   6   -123.9587409 -0.446803E-04  0.546E-02    3.72       1.0  T
   7   -123.9588100 -0.690984E-04  0.234E-02    3.72       1.0  T
   8   -123.9588224 -0.124604E-04  0.795E-03    3.72       1.4  T
   9   -123.9588234 -0.924525E-06  0.336E-03    3.71       3.4  T
  10   -123.9588235 -0.167842E-06  0.127E-03    3.72       9.0  T
  11   -123.9588236 -0.191289E-07  0.488E-04    3.72      23.4  T
  12   -123.9588236 -0.468630E-08  0.136E-04    3.72      83.9  T

   *** convergence criteria satisfied after 12 iterations ***

         #    Occupation            Energy/Eh            Energy/eV
      -------------------------------------------------------------
         1        2.0000           -0.7283374             -19.8191
       ...           ...                  ...                  ...
       102        2.0000           -0.4085376             -11.1169
       103        2.0000           -0.4052961             -11.0287
       104        2.0000           -0.3989062             -10.8548
       105        2.0000           -0.3965329             -10.7902
       106        2.0000           -0.3955389             -10.7632
       107        2.0000           -0.3917000             -10.6587
       108        2.0000           -0.3832265             -10.4281 (HOMO)
       109                         -0.2466993              -6.7130 (LUMO)
       110                         -0.2402018              -6.5362
       111                         -0.2354993              -6.4083
       112                         -0.2321316              -6.3166
       113                         -0.2230910              -6.0706
       ...                                ...                  ...
       194                          0.6469364              17.6040
      -------------------------------------------------------------
                  HL-Gap            0.1365273 Eh            3.7151 eV
             Fermi-level           -0.3149629 Eh           -8.5706 eV

 SCC (total)                   0 d,  0 h,  0 min, 10.155 sec
 SCC setup                      ...        0 min,  0.040 sec (  0.389%)
 Dispersion                     ...        0 min,  0.071 sec (  0.699%)
 classical contributions        ...        0 min,  0.006 sec (  0.061%)
 integral evaluation            ...        0 min,  0.501 sec (  4.929%)
 iterations                     ...        0 min,  9.088 sec ( 89.500%)
 molecular gradient             ...        0 min,  0.441 sec (  4.339%)
 printout                       ...        0 min,  0.008 sec (  0.082%)

         :::::::::::::::::::::::::::::::::::::::::::::::::::::
         ::                     SUMMARY                     ::
         :::::::::::::::::::::::::::::::::::::::::::::::::::::
         :: total energy            -122.594049516089 Eh    ::
         :: gradient norm              0.311253160694 Eh/a0 ::
         :: HOMO-LUMO gap              3.715095844200 eV    ::
         ::.................................................::
         :: SCC energy              -123.955643160028 Eh    ::
         :: -> isotropic ES            0.265415858084 Eh    ::
         :: -> anisotropic ES          0.010773222653 Eh    ::
         :: -> anisotropic XC          0.041608035196 Eh    ::
         :: -> dispersion             -0.089408170804 Eh    ::
         :: repulsion energy           1.361593643939 Eh    ::
         :: add. restraining           0.000000000000 Eh    ::
         :: total charge              -0.000000000000 e     ::
         :::::::::::::::::::::::::::::::::::::::::::::::::::::

           -------------------------------------------------
          |                Property Printout                |
           -------------------------------------------------

    * Orbital Energies and Occupations

         #    Occupation            Energy/Eh            Energy/eV
      -------------------------------------------------------------
         1        2.0000           -0.7283374             -19.8191
       ...           ...                  ...                  ...
        96        2.0000           -0.4300479             -11.7022
        97        2.0000           -0.4246649             -11.5557
        98        2.0000           -0.4228352             -11.5059
        99        2.0000           -0.4206460             -11.4464
       100        2.0000           -0.4181384             -11.3781
       101        2.0000           -0.4114084             -11.1950
       102        2.0000           -0.4085376             -11.1169
       103        2.0000           -0.4052961             -11.0287
       104        2.0000           -0.3989062             -10.8548
       105        2.0000           -0.3965329             -10.7902
       106        2.0000           -0.3955389             -10.7632
       107        2.0000           -0.3917000             -10.6587
       108        2.0000           -0.3832265             -10.4281 (HOMO)
       109                         -0.2466993              -6.7130 (LUMO)
       110                         -0.2402018              -6.5362
       111                         -0.2354993              -6.4083
       112                         -0.2321316              -6.3166
       113                         -0.2230910              -6.0706
       114                         -0.2219895              -6.0406
       115                         -0.2155325              -5.8649
       116                         -0.1853264              -5.0430
       117                         -0.0733210              -1.9952
       118                         -0.0506873              -1.3793
       119                         -0.0301836              -0.8213
       ...                                ...                  ...
       194                          0.6469364              17.6040
      -------------------------------------------------------------
                  HL-Gap            0.1365273 Eh            3.7151 eV
             Fermi-level           -0.3149629 Eh           -8.5706 eV

     #   Z          covCN         q      C6AA      α(0)
     1   7 N        2.693    -0.191    25.142     7.447
     2   6 C        3.788     0.004    20.524     6.452
     3   6 C        2.745     0.271    22.420     7.753
     4   8 O        0.856    -0.383    21.345     6.194
     5   7 N        2.681    -0.199    25.330     7.475
     6   6 C        3.789    -0.001    20.615     6.466
     7   6 C        2.756     0.259    22.644     7.792
     8   6 C        3.808     0.028    20.102     6.382
     9   8 O        0.860    -0.429    22.268     6.327
    10   7 N        2.690    -0.174    24.767     7.391
    11   6 C        3.788    -0.104    22.492     6.755
    12   6 C        2.769     0.283    22.214     7.719
    13   6 C        2.736     0.284    22.184     7.711
    14   6 C        3.775     0.013    20.392     6.434
    15   8 O        0.860    -0.443    22.548     6.366
    16   8 O        0.857    -0.412    21.923     6.278
    17   7 N        2.632    -0.276    27.129     7.736
    18   7 N        2.677    -0.201    25.368     7.480
    19   6 C        3.827    -0.011    20.757     6.483
    20   6 C        2.740     0.246    22.874     7.831
    21   6 C        3.720    -0.103    22.588     6.788
    22   6 C        3.719    -0.099    22.519     6.778
    23   6 C        3.788     0.019    20.270     6.412
    24   8 O        0.856    -0.420    22.085     6.301
    25   7 N        2.717    -0.161    24.474     7.347
    26   6 C        3.810    -0.074    21.906     6.662
    27   6 C        2.755     0.277    22.311     7.735
    28   6 C        3.113     0.050    26.728     8.469
    29   8 O        0.860    -0.482    23.398     6.485
    30   7 N        1.946    -0.290    28.344     7.895
    31   6 C        3.056    -0.025    28.578     8.767
    32   6 C        3.099     0.109    25.482     8.273
    33   7 N        2.776    -0.107    23.340     7.175
    34   6 C        3.656     0.092    19.330     6.312
    35   8 O        1.659    -0.400    20.845     6.163
    36   6 C        3.831    -0.010    20.725     6.477
    37   6 C        3.754    -0.107    22.601     6.779
    38   6 C        3.796    -0.063    21.720     6.636
    39   6 C        3.745    -0.104    22.554     6.775
    40   1 H        0.859     0.194     1.135     1.669
    41   1 H        0.926     0.086     1.920     2.167
    42   1 H        0.861     0.186     1.178     1.700
    43   1 H        0.922     0.080     1.984     2.203
    44   1 H        0.925     0.091     1.870     2.139
    45   1 H        0.860     0.176     1.239     1.743
    46   1 H        0.913     0.043     2.413     2.430
    47   1 H        0.920     0.083     1.953     2.186
    48   1 H        0.927     0.093     1.850     2.127
    49   1 H        0.861     0.204     1.084     1.631
    50   1 H        0.858     0.207     1.073     1.623
    51   1 H        0.859     0.219     1.016     1.579
    52   1 H        0.917     0.040     2.444     2.445
    53   1 H        0.911     0.037     2.492     2.469
    54   1 H        0.924     0.060     2.196     2.318
    55   1 H        0.906     0.023     2.691     2.566
    56   1 H        0.919     0.051     2.309     2.377
    57   1 H        0.907     0.029     2.605     2.525
    58   1 H        0.923     0.041     2.442     2.444
    59   1 H        0.928     0.082     1.955     2.187
    60   1 H        0.862     0.199     1.113     1.652
    61   1 H        0.924     0.048     2.342     2.393
    62   1 H        0.923     0.080     1.983     2.202
    63   1 H        0.926     0.036     2.496     2.471
    64   1 H        0.925     0.038     2.475     2.460
    65   1 H        0.859     0.165     1.303     1.788
    66   1 H        0.920     0.019     2.744     2.591
    67   1 H        0.908     0.044     2.396     2.421
    68   1 H        0.804     0.303     0.711     1.324
    69   1 H        0.917     0.042     2.418     2.432
    70   1 H        0.921     0.043     2.405     2.425
    71   1 H        0.920     0.047     2.355     2.400
    72   1 H        0.924     0.057     2.236     2.338
    73   1 H        0.923     0.036     2.505     2.475
    74   1 H        0.917     0.052     2.291     2.367
    75   1 H        0.921     0.037     2.495     2.470
    76   1 H        0.925     0.028     2.610     2.526
    77   1 H        0.924     0.034     2.536     2.490

 Mol. C6AA /au·bohr⁶  :      57299.110167
 Mol. C8AA /au·bohr⁸  :    1275765.463480
 Mol. α(0) /au        :        358.458373


Wiberg/Mayer (AO) data.
largest (>0.10) Wiberg bond orders for each atom

 ---------------------------------------------------------------------------
     #   Z sym  total        # sym  WBO       # sym  WBO       # sym  WBO
 ---------------------------------------------------------------------------
     1   7 N    3.392 --     7 C    1.256     2 C    0.984    40 H    0.901
                             9 O    0.177
     2   6 C    3.955 --     1 N    0.984    34 C    0.958    41 H    0.953
                             3 C    0.901
     3   6 C    3.945 --     4 O    1.757     5 N    1.213     2 C    0.901
     4   8 O    2.065 --     3 C    1.757     5 N    0.184
     5   7 N    3.376 --     3 C    1.213     6 C    0.967    42 H    0.928
                             4 O    0.184
     6   6 C    3.961 --    27 C    1.000     5 N    0.967    43 H    0.949
                            36 C    0.906
     7   6 C    3.953 --     9 O    1.688     1 N    1.256     8 C    0.936
     8   6 C    3.962 --    11 C    0.981    10 N    0.959    44 H    0.953
                             7 C    0.936
     9   8 O    1.993 --     7 C    1.688     1 N    0.177
    10   7 N    3.428 --    12 C    1.263     8 C    0.959    45 H    0.930
                            15 O    0.181
    11   6 C    3.986 --     8 C    0.981    46 H    0.961    47 H    0.958
                            13 C    0.936
    12   6 C    3.947 --    15 O    1.666    10 N    1.263    14 C    0.942
    13   6 C    3.947 --    16 O    1.733    17 N    1.251    11 C    0.936
    14   6 C    3.958 --    18 N    0.985    48 H    0.956    12 C    0.942
                            19 C    0.932
    15   8 O    1.986 --    12 C    1.666    10 N    0.181
    16   8 O    2.045 --    13 C    1.733    17 N    0.200
    17   7 N    3.358 --    13 C    1.251    49 H    0.938    50 H    0.937
                            16 O    0.200
    18   7 N    3.427 --    20 C    1.257    14 C    0.985    51 H    0.884
                            24 O    0.207
    19   6 C    3.987 --    21 C    1.032    22 C    1.002    52 H    0.962
                            14 C    0.932
    20   6 C    3.951 --    24 O    1.707    18 N    1.257    23 C    0.913
    21   6 C    3.991 --    19 C    1.032    53 H    0.977    55 H    0.973
                            54 H    0.969
    22   6 C    3.992 --    19 C    1.002    58 H    0.986    56 H    0.985
                            57 H    0.985
    23   6 C    3.959 --    25 N    0.990    59 H    0.963    26 C    0.949
                            20 C    0.913
    24   8 O    2.025 --    20 C    1.707    18 N    0.207
    25   7 N    3.472 --    27 C    1.290    23 C    0.990    60 H    0.926
                            29 O    0.185
    26   6 C    3.990 --    28 C    1.016    61 H    0.972    62 H    0.967
                            23 C    0.949
    27   6 C    3.955 --    29 O    1.580    25 N    1.290     6 C    1.000
    28   6 C    3.973 --    31 C    1.620    30 N    1.207    26 C    1.016
    29   8 O    1.955 --    27 C    1.580    25 N    0.185
    30   7 N    3.021 --    32 C    1.601    28 C    1.207    33 N    0.122
    31   6 C    3.938 --    28 C    1.620    33 N    1.164    63 H    0.971
    32   6 C    3.959 --    30 N    1.601    33 N    1.253    64 H    0.960
    33   7 N    3.561 --    32 C    1.253    31 C    1.164    65 H    0.942
                            30 N    0.122
    34   6 C    3.961 --    35 O    1.046    66 H    0.964     2 C    0.958
                            67 H    0.956
    35   8 O    2.016 --    34 C    1.046    68 H    0.889
    36   6 C    3.983 --    37 C    1.031    38 C    0.997    69 H    0.952
                             6 C    0.906
    37   6 C    3.990 --    36 C    1.031    71 H    0.979    70 H    0.977
                            72 H    0.972
    38   6 C    3.994 --    39 C    1.015    36 C    0.997    73 H    0.978
                            74 H    0.967
    39   6 C    3.991 --    38 C    1.015    76 H    0.989    77 H    0.986
                            75 H    0.981
    40   1 H    0.962 --     1 N    0.901
    41   1 H    0.992 --     2 C    0.953
    42   1 H    0.965 --     5 N    0.928
    43   1 H    0.993 --     6 C    0.949
    44   1 H    0.991 --     8 C    0.953
    45   1 H    0.969 --    10 N    0.930
    46   1 H    0.998 --    11 C    0.961
    47   1 H    0.993 --    11 C    0.958
    48   1 H    0.991 --    14 C    0.956
    49   1 H    0.958 --    17 N    0.938
    50   1 H    0.957 --    17 N    0.937
    51   1 H    0.952 --    18 N    0.884
    52   1 H    0.998 --    19 C    0.962
    53   1 H    0.998 --    21 C    0.977
    54   1 H    0.996 --    21 C    0.969
    55   1 H    0.999 --    21 C    0.973
    56   1 H    0.997 --    22 C    0.985
    57   1 H    0.999 --    22 C    0.985
    58   1 H    0.998 --    22 C    0.986
    59   1 H    0.993 --    23 C    0.963
    60   1 H    0.960 --    25 N    0.926
    61   1 H    0.997 --    26 C    0.972
    62   1 H    0.994 --    26 C    0.967
    63   1 H    0.999 --    31 C    0.971
    64   1 H    0.998 --    32 C    0.960
    65   1 H    0.973 --    33 N    0.942
    66   1 H    1.000 --    34 C    0.964
    67   1 H    0.998 --    34 C    0.956
    68   1 H    0.908 --    35 O    0.889
    69   1 H    0.998 --    36 C    0.952
    70   1 H    0.997 --    37 C    0.977
    71   1 H    0.998 --    37 C    0.979
    72   1 H    0.997 --    37 C    0.972
    73   1 H    0.999 --    38 C    0.978
    74   1 H    0.997 --    38 C    0.967
    75   1 H    0.999 --    39 C    0.981
    76   1 H    0.999 --    39 C    0.989
    77   1 H    0.999 --    39 C    0.986
 ---------------------------------------------------------------------------

Topologies differ in total number of bonds
Writing topology from bond orders to xtbtopo.mol

molecular dipole:
                 x           y           z       tot (Debye)
 q only:       -2.091      -0.693      -2.667
   full:       -2.652      -1.457      -2.759      10.407
molecular quadrupole (traceless):
                xx          xy          yy          xz          yz          zz
 q only:       27.571      16.056      -2.718     -18.062     -14.853     -24.852
  q+dip:       30.433      29.307       0.002     -17.907     -24.072     -30.435
   full:       31.532      29.482      -1.551     -17.790     -23.249     -29.982


           -------------------------------------------------
          | TOTAL ENERGY             -122.594049516089 Eh   |
          | GRADIENT NORM               0.311253160694 Eh/α |
          | HOMO-LUMO GAP               3.715095844200 eV   |
           -------------------------------------------------

------------------------------------------------------------------------
 * finished run on 2026/05/23 at 12:27:09.972     
------------------------------------------------------------------------
 total:
 * wall-time:     0 d,  0 h,  0 min, 10.676 sec
 *  cpu-time:     0 d,  0 h,  0 min, 17.482 sec
 * ratio c/w:     1.637 speedup
 SCF:
 * wall-time:     0 d,  0 h,  0 min, 10.179 sec
 *  cpu-time:     0 d,  0 h,  0 min, 17.016 sec
 * ratio c/w:     1.672 speedup

normal termination of xtb
