      -----------------------------------------------------------      
     |                   =====================                   |     
     |                           x T B                           |     
     |                   =====================                   |     
     |                         S. Grimme                         |     
     |          Mulliken Center for Theoretical Chemistry        |     
     |                    University of Bonn                     |     
      -----------------------------------------------------------      

   * xtb version 6.7.1 (26dd68d) compiled by 'froitzheim@fs7' on 2026-05-14

   xtb is free software: you can redistribute it and/or modify it under
   the terms of the GNU Lesser General Public License as published by
   the Free Software Foundation, either version 3 of the License, or
   (at your option) any later version.
   
   xtb is distributed in the hope that it will be useful,
   but WITHOUT ANY WARRANTY; without even the implied warranty of
   MERCHANTABILITY or FITNESS FOR A PARTICULAR PURPOSE.  See the
   GNU Lesser General Public License for more details.
   
   Cite this work as:
   * C. Bannwarth, E. Caldeweyher, S. Ehlert, A. Hansen, P. Pracht,
     J. Seibert, S. Spicher, S. Grimme, WIREs Comput. Mol. Sci., 2020, 11,
     e01493. DOI: 10.1002/wcms.1493
   
   for g-xTB:
   * T. Froitzheim, M. Müller, A. Hansen, S. Grimme, ChemRxiv, 2025, preprint.
     DOI: 10.26434/chemrxiv-2025-bjxv
   for GFN2-xTB:
   * C. Bannwarth, S. Ehlert and S. Grimme., J. Chem. Theory Comput., 2019,
     15, 1652-1671. DOI: 10.1021/acs.jctc.8b01176
   for GFN1-xTB:
   * S. Grimme, C. Bannwarth, P. Shushkov, J. Chem. Theory Comput., 2017,
     13, 1989-2009. DOI: 10.1021/acs.jctc.7b00118
   for GFN0-xTB:
   * P. Pracht, E. Caldeweyher, S. Ehlert, S. Grimme, ChemRxiv, 2019, preprint.
     DOI: 10.26434/chemrxiv.8326202.v1
   for GFN-FF:
   * S. Spicher and S. Grimme, Angew. Chem. Int. Ed., 2020, 59, 15665-15673.
     DOI: 10.1002/anie.202004239
   
   for ALPB and GBSA implicit solvation:
   * S. Ehlert, M. Stahn, S. Spicher, S. Grimme, J. Chem. Theory Comput.,
     2021, 17, 4250-4261. DOI: 10.1021/acs.jctc.1c00471
   
   for ddCOSMO and CPCM-X implicit solvation:
   * M. Stahn, S. Ehlert, S. Grimme, J. Phys. Chem. A,
     2023, XX, XXXX-XXXX. DOI: 10.1021/acs.jpca.3c04382
   
   for DFT-D4:
   * E. Caldeweyher, C. Bannwarth and S. Grimme, J. Chem. Phys., 2017,
     147, 034112. DOI: 10.1063/1.4993215
   * E. Caldeweyher, S. Ehlert, A. Hansen, H. Neugebauer, S. Spicher,
     C. Bannwarth and S. Grimme, J. Chem. Phys., 2019, 150, 154122.
     DOI: 10.1063/1.5090222
   * E. Caldeweyher, J.-M. Mewes, S. Ehlert and S. Grimme, Phys. Chem. Chem. Phys.
     2020, 22, 8499-8512. DOI: 10.1039/D0CP00502A
   
   for sTDA-xTB:
   * S. Grimme and C. Bannwarth, J. Chem. Phys., 2016, 145, 054103.
     DOI: 10.1063/1.4959605
   
   in the mass-spec context:
   * V. Asgeirsson, C. Bauer and S. Grimme, Chem. Sci., 2017, 8, 4879.
     DOI: 10.1039/c7sc00601b
   * J. Koopman and S. Grimme, ACS Omega 2019, 4, 12, 15120-15133.
     DOI: 10.1021/acsomega.9b02011
   
   for metadynamics refer to:
   * S. Grimme, J. Chem. Theory Comput., 2019, 155, 2847-2862
     DOI: 10.1021/acs.jctc.9b00143
   
   for SPH calculations refer to:
   * S. Spicher and S. Grimme, J. Chem. Theory Comput., 2021, 17, 1701-1714
     DOI: 10.1021/acs.jctc.0c01306
   
   for ONIOM refer to:
   * C. Plett, A. Katbashev, S. Ehlert, S. Grimme, M. Bursch,
     Phys. Chem. Chem. Phys., 2023, 25, 17860-17868. DOI: 10.1039/D3CP02178E
   
   for DIPRO refer to:
   * J. Kohn, N. Gildemeister, S. Grimme, D. Fazzi, A. Hansen,
     J. Chem. Phys. 159, 144106 (2023). DOI: 10.1063/5.0167484
   
   for PTB refer to:
   * S. Grimme, M. Mueller, A. Hansen, J. Chem. Phys., 2023, 158, 124111.
     DOI: 10.1063/5.0137838
   
   with help from (in alphabetical order)
   P. Atkinson, C. Bannwarth, F. Bohle, G. Brandenburg, E. Caldeweyher,
   M. Checinski, S. Dohm, S. Ehlert, S. Ehrlich, M. Friede, T. Froitzheim,
   I. Gerasimov, C. Hölzer, A. Katbashev, J. Kohn, J. Koopman, C. Lavigne,
   S. Lehtola, F. März, M. Müller, F. Musil, H. Neugebauer, J. Pisarek,
   C. Plett, P. Pracht, F. Pultar, J. Seibert, P. Shushkov, S. Spicher,
   M. Stahn, M. Steiner, T. Strunk, J. Stückrath, T. Rose, and J. Unsleber
   
 * started run on 2026/05/23 at 12:31:02.075     
   ID    Z sym.   atoms
    1    7 N      1, 5, 13, 19, 23, 28, 35
    2    6 C      2, 3, 6-10, 12, 14, 15, 17, 20, 21, 24-26, 29, 30, 32, 33,
                  36, 37, 39, 41-44
    3    8 O      4, 11, 18, 22, 27, 31, 34, 38, 40
    4   16 S      16
    5    1 H      45-89

           -------------------------------------------------
          |                Calculation Setup                |
           -------------------------------------------------

          program call               : /home/xchen/software/xtb-6.7.1-gxtb/bin/xtb /home/xchen/Test/benchmark/md_sampled/06_7_0793_0/snap_0049.xyz --charge 0 --gxtb --norestart
          coordinate file            : /home/xchen/Test/benchmark/md_sampled/06_7_0793_0/snap_0049.xyz
          omp threads                :                    48

core increment energy         -2.3123015384480E+03 Eh
dispersion energy              2.1677047281456E-02 Eh
molecular charge               0.0000000000000E+00 e
number of electrons            2.4799999999781E+02 e
number of unpaired electrons   0.0000000000000E+00 e
wavefunction                   restricted
integral cutoff                2.6907767250513E+01 bohr
energy convergence             1.0000000000000E-06 Eh
density convergence            2.0000000000000E-05 e

------------------------------------------------------------
  cycle        total energy    energy error   density error
------------------------------------------------------------
      1     -2513.304351912  -2.0102449E+02   0.0000000E+00
      2     -2513.700363518  -3.9601161E-01   2.1630368E-02
      3     -2513.952017860  -2.5165434E-01   1.7061614E-02
      4     -2514.471013127  -5.1899527E-01   1.3513833E-02
      5     -2514.479579427  -8.5662996E-03   1.0437521E-03
      6     -2514.480087251  -5.0782438E-04   2.1143206E-04
      7     -2514.480136119  -4.8867254E-05   5.5497304E-05
      8     -2514.480140041  -3.9223775E-06   1.5484625E-05
      9     -2514.480140506  -4.6530243E-07   3.0193634E-06
------------------------------------------------------------

electronic energy             -2.0220027910569E+02 Eh
total energy                  -2.5144801405064E+03 Eh

Post processing:
 | Mayer-Wiberg bond orders
 | Molecular Multipole Moments

 total:                                  12.245 sec
 - increment                              0.000 sec (  0%)
 - repulsion                              0.011 sec (  0%)
 - dispersion                             0.308 sec (  2%)
 - coulomb                                0.130 sec (  1%)
 - exchange                               0.005 sec (  0%)
 - hamiltonian                            0.491 sec (  4%)
 - acp                                    0.284 sec (  2%)
 - spin polarization                      0.000 sec (  0%)
 - post processing                        0.356 sec (  2%)
 - scc                                   10.054 sec ( 82%)
 - coulomb gradient                       0.057 sec (  0%)
 - dispersion gradient                    0.042 sec (  0%)
 - exchange gradient                      0.132 sec (  1%)
 - repulsion gradient                     0.034 sec (  0%)
 - acp gradient                           0.281 sec (  2%)
 - hamiltonian gradient                   0.410 sec (  3%)
 - gradient                               0.956 sec (  7%)

         :::::::::::::::::::::::::::::::::::::::::::::::::::::
         ::                     SUMMARY                     ::
         :::::::::::::::::::::::::::::::::::::::::::::::::::::
         :: total energy           -2514.480140506413 Eh    ::
         :: gradient norm              0.388800117626 Eh/a0 ::
         :: HOMO-LUMO gap              8.994490745024 eV    ::
         ::.................................................::
         :: add. restraining           0.000000000000 Eh    ::
         :: total charge              -0.000000000000 e     ::
         :::::::::::::::::::::::::::::::::::::::::::::::::::::

           -------------------------------------------------
          |                Property Printout                |
           -------------------------------------------------

    * Orbital Energies and Occupations
------------------------------------------------------------------
      #    Occupation            Energy/Eh            Energy/eV
------------------------------------------------------------------
      1        2.0000           -1.3593514             -36.9898
    ...           ...                  ...                  ...
    112        2.0000           -0.3857972             -10.4981
    113        2.0000           -0.3841527             -10.4533
    114        2.0000           -0.3837292             -10.4418
    115        2.0000           -0.3787853             -10.3073
    116        2.0000           -0.3741684             -10.1816
    117        2.0000           -0.3728588             -10.1460
    118        2.0000           -0.3691230             -10.0443
    119        2.0000           -0.3670092              -9.9868
    120        2.0000           -0.3644594              -9.9174
    121        2.0000           -0.3581671              -9.7462
    122        2.0000           -0.3478237              -9.4648
    123        2.0000           -0.3467025              -9.4343
    124        2.0000           -0.3398921              -9.2489 (HOMO)
    125                         -0.0093507              -0.2544 (LUMO)
    126                          0.0005918               0.0161
    127                          0.0038982               0.1061
    128                          0.0091110               0.2479
    129                          0.0193710               0.5271
    130                          0.0231611               0.6302
    131                          0.0311285               0.8470
    132                          0.0374328               1.0186
    133                          0.0547317               1.4893
    134                          0.1324648               3.6046
    135                          0.1372591               3.7350
    ...                                ...                  ...
    226                          0.7107748              19.3412
------------------------------------------------------------------
               HL-Gap            0.3305414 Eh            8.9945 eV
------------------------------------------------------------------

Atomic charges and shell populations (in atomic units):
-----------------------------------------------------------------
     #    Z                q          p(s)       p(p)       p(d)
-----------------------------------------------------------------
     1    7 N      -0.288073      1.340623   3.947450
     2    6 C       0.003477      1.131770   2.864753
     3    6 C       0.408285      1.115862   2.475853
     4    8 O      -0.539371      1.859832   4.679539
     5    7 N      -0.330053      1.380795   3.949258
     6    6 C       0.007550      1.131143   2.861306
     7    6 C      -0.056642      1.122311   2.934331
     8    6 C       0.427379      1.109209   2.463411
     9    6 C      -0.176891      1.182260   2.994631
    10    6 C       0.024065      1.119568   2.856367
    11    8 O      -0.497767      1.849799   4.647968
    12    6 C      -0.137287      1.167823   2.969464
    13    7 N      -0.339660      1.413862   3.925798
    14    6 C      -0.134491      1.169720   2.964772
    15    6 C       0.401885      1.107259   2.490856
    16   16 S      -0.271079      1.888963   4.336674   0.045443
    17    6 C      -0.097265      1.125288   2.971977
    18    8 O      -0.531867      1.860580   4.671286
    19    7 N      -0.301339      1.340025   3.961313
    20    6 C       0.402123      1.111917   2.485960
    21    6 C      -0.023591      1.138603   2.884988
    22    8 O      -0.556152      1.858510   4.697642
    23    7 N      -0.323217      1.363578   3.959639
    24    6 C      -0.254814      1.187219   3.067595
    25    6 C       0.408943      1.110548   2.480508
    26    6 C      -0.006591      1.108361   2.898230
    27    8 O      -0.557056      1.851404   4.705653
    28    7 N      -0.328194      1.356206   3.971988
    29    6 C       0.103045      1.103541   2.793414
    30    6 C       0.409519      1.117683   2.472799
    31    8 O      -0.588110      1.781218   4.806892
    32    6 C      -0.270067      1.166148   3.103919
    33    6 C       0.005214      1.133795   2.860990
    34    8 O      -0.506202      1.866599   4.639603
    35    7 N      -0.319098      1.384199   3.934899
    36    6 C       0.092379      1.138068   2.769553
    37    6 C       0.409389      1.124858   2.465754
    38    8 O      -0.624327      1.822189   4.802138
    39    6 C      -0.264170      1.159498   3.104671
    40    8 O      -0.557825      1.852123   4.705702
    41    6 C      -0.082299      1.143731   2.938568
    42    6 C      -0.295571      1.160774   3.134797
    43    6 C      -0.188966      1.162020   3.026946
    44    6 C      -0.267016      1.170547   3.096468
    45    1 H       0.161938      0.838062
    46    1 H       0.272571      0.727429
    47    1 H       0.143807      0.856193
    48    1 H       0.103462      0.896538
    49    1 H       0.088818      0.911182
    50    1 H       0.098394      0.901606
    51    1 H       0.098899      0.901101
    52    1 H       0.127796      0.872204
    53    1 H       0.110099      0.889901
    54    1 H       0.068480      0.931520
    55    1 H       0.304128      0.695872
    56    1 H       0.143274      0.856726
    57    1 H       0.109183      0.890817
    58    1 H       0.180576      0.819424
    59    1 H       0.133027      0.866973
    60    1 H       0.117654      0.882346
    61    1 H       0.272778      0.727222
    62    1 H       0.130255      0.869745
    63    1 H       0.294485      0.705515
    64    1 H       0.151022      0.848978
    65    1 H       0.098736      0.901264
    66    1 H       0.086628      0.913372
    67    1 H       0.160297      0.839703
    68    1 H       0.283646      0.716354
    69    1 H       0.105037      0.894963
    70    1 H       0.373351      0.626649
    71    1 H       0.092394      0.907606
    72    1 H       0.097558      0.902442
    73    1 H       0.105664      0.894336
    74    1 H       0.112898      0.887102
    75    1 H       0.281815      0.718185
    76    1 H       0.106302      0.893698
    77    1 H       0.375043      0.624957
    78    1 H       0.123648      0.876352
    79    1 H       0.103889      0.896111
    80    1 H       0.091867      0.908133
    81    1 H       0.108156      0.891844
    82    1 H       0.116647      0.883353
    83    1 H       0.098396      0.901604
    84    1 H       0.104988      0.895012
    85    1 H       0.099268      0.900732
    86    1 H       0.100404      0.899596
    87    1 H       0.082317      0.917683
    88    1 H       0.086473      0.913527
    89    1 H       0.105732      0.894268
-----------------------------------------------------------------


Wiberg/Mayer (AO) data.
largest (>0.10) Wiberg bond orders for each atom

 ---------------------------------------------------------------------------
     #   Z sym  total        # sym  WBO       # sym  WBO       # sym  WBO
 ---------------------------------------------------------------------------
     1   7 N    3.363 --     8 C    1.132     7 C    0.994     2 C    0.949
                            11 C    0.153
     2   6 C    3.916 --    12 C    0.989     1 N    0.949    45 N    0.922
                             3 C    0.914
     3   6 C    3.864 --     4 C    1.654     5 N    1.218     2 C    0.914
     4   8 C    1.922 --     3 C    1.654     5 N    0.148
     5   7 N    3.308 --     3 C    1.218     6 C    0.977    46 N    0.873
                             4 C    0.148
     6   6 C    3.926 --     5 N    0.977    41 C    0.948    37 C    0.931
                            47 N    0.928
     7   6 C    3.932 --     1 N    0.994     9 C    0.985    48 N    0.950
                            49 N    0.948
     8   6 C    3.857 --    11 C    1.719     1 N    1.132    10 C    0.905
     9   6 C    3.955 --    12 C    0.995     7 C    0.985    51 N    0.965
                            50 N    0.961
    10   6 C    3.936 --    14 C    1.007    13 N    0.959    52 N    0.928
                             8 C    0.905
    11   8 C    2.005 --     8 C    1.719     1 N    0.153
    12   6 C    3.957 --     9 C    0.995     2 C    0.989    54 N    0.962
                            53 N    0.961
    13   7 N    3.288 --    15 C    1.235    10 C    0.959    55 N    0.833
                            18 C    0.153
    14   6 C    3.935 --    10 C    1.007    16 O    0.982    57 N    0.952
                            56 N    0.946
    15   6 C    3.880 --    18 C    1.659    13 N    1.235    17 C    0.920
    16  16 O    1.999 --    14 C    0.982    58 N    0.947
    17   6 C    3.922 --    19 N    0.997    59 N    0.957    60 N    0.945
                            15 C    0.920
    18   8 C    1.931 --    15 C    1.659    13 N    0.153
    19   7 N    3.376 --    20 C    1.257    17 C    0.997    61 N    0.893
                            22 C    0.155
    20   6 C    3.864 --    22 C    1.589    19 N    1.257    21 C    0.937
    21   6 C    3.929 --    23 N    0.994    24 C    0.954    20 C    0.937
                            62 N    0.933
    22   8 C    1.923 --    20 C    1.589    19 N    0.155
    23   7 N    3.341 --    25 C    1.238    21 C    0.994    63 N    0.866
                            27 C    0.152
    24   6 C    3.933 --    66 N    0.977    65 N    0.972    21 C    0.954
                            64 N    0.947
    25   6 C    3.861 --    27 C    1.593    23 N    1.238    26 C    0.927
    26   6 C    3.937 --    28 N    1.013    29 C    0.929    25 C    0.927
                            67 N    0.922
    27   8 C    1.939 --    25 C    1.593    23 N    0.152
    28   7 N    3.321 --    30 C    1.205    26 C    1.013    68 N    0.865
                            34 C    0.147
    29   6 C    3.910 --    32 C    1.008    31 C    0.966    69 N    0.941
                            26 C    0.929
    30   6 C    3.869 --    34 C    1.679    28 N    1.205    33 C    0.900
    31   8 C    1.866 --    29 C    0.966    70 N    0.791
    32   6 C    3.959 --    29 C    1.008    71 N    0.969    73 N    0.967
                            72 N    0.962
    33   6 C    3.932 --    35 N    0.987    36 C    0.953    74 N    0.935
                            30 C    0.900
    34   8 C    1.954 --    30 C    1.679    28 N    0.147
    35   7 N    3.313 --    37 C    1.229    33 C    0.987    75 N    0.874
                            40 C    0.142
    36   6 C    3.905 --    39 C    1.012    33 C    0.953    76 N    0.950
                            38 C    0.936
    37   6 C    3.849 --    40 C    1.594    35 N    1.229     6 C    0.931
    38   8 C    1.835 --    36 C    0.936    77 N    0.779
    39   6 C    3.956 --    36 C    1.012    79 N    0.971    80 N    0.969
                            78 N    0.964
    40   8 C    1.947 --    37 C    1.594    35 N    0.142
    41   6 C    3.965 --    42 C    1.010    43 C    0.984    81 N    0.949
                             6 C    0.948
    42   6 C    3.951 --    41 C    1.010    83 N    0.970    82 N    0.970
                            84 N    0.968
    43   6 C    3.961 --    44 C    1.012    41 C    0.984    86 N    0.963
                            85 N    0.958
    44   6 C    3.957 --    43 C    1.012    87 N    0.979    88 N    0.978
                            89 N    0.968
    45   1 N    0.974 --     2 C    0.922
    46   1 N    0.926 --     5 N    0.873
    47   1 N    0.979 --     6 C    0.928
    48   1 N    0.989 --     7 C    0.950
    49   1 N    0.992 --     7 C    0.948
    50   1 N    0.990 --     9 C    0.961
    51   1 N    0.990 --     9 C    0.965
    52   1 N    0.984 --    10 C    0.928
    53   1 N    0.988 --    12 C    0.961
    54   1 N    0.995 --    12 C    0.962
    55   1 N    0.908 --    13 N    0.833
    56   1 N    0.979 --    14 C    0.946
    57   1 N    0.988 --    14 C    0.952
    58   1 N    0.967 --    16 O    0.947
    59   1 N    0.982 --    17 C    0.957
    60   1 N    0.986 --    17 C    0.945
    61   1 N    0.926 --    19 N    0.893
    62   1 N    0.983 --    21 C    0.933
    63   1 N    0.913 --    23 N    0.866
    64   1 N    0.977 --    24 C    0.947
    65   1 N    0.990 --    24 C    0.972
    66   1 N    0.992 --    24 C    0.977
    67   1 N    0.974 --    26 C    0.922
    68   1 N    0.920 --    28 N    0.865
    69   1 N    0.989 --    29 C    0.941
    70   1 N    0.861 --    31 C    0.791
    71   1 N    0.991 --    32 C    0.969
    72   1 N    0.990 --    32 C    0.962
    73   1 N    0.989 --    32 C    0.967
    74   1 N    0.987 --    33 C    0.935
    75   1 N    0.921 --    35 N    0.874
    76   1 N    0.989 --    36 C    0.950
    77   1 N    0.859 --    38 C    0.779
    78   1 N    0.985 --    39 C    0.964
    79   1 N    0.989 --    39 C    0.971
    80   1 N    0.992 --    39 C    0.969
    81   1 N    0.988 --    41 C    0.949
    82   1 N    0.986 --    42 C    0.970
    83   1 N    0.990 --    42 C    0.970
    84   1 N    0.989 --    42 C    0.968
    85   1 N    0.990 --    43 C    0.958
    86   1 N    0.990 --    43 C    0.963
    87   1 N    0.993 --    44 C    0.979
    88   1 N    0.993 --    44 C    0.978
    89   1 N    0.989 --    44 C    0.968
 ---------------------------------------------------------------------------

Topologies differ in total number of bonds
Writing topology from bond orders to xtbtopo.mol

Atomic dipole moments (in atomic units):
---------------------------------------------------------
     #    Z                 x            y            z
---------------------------------------------------------
           total     1.174152    -0.735554     2.086074
---------------------------------------------------------
         |total|     2.504272     6.365225 Debye


           -------------------------------------------------
          | TOTAL ENERGY            -2514.480140506413 Eh   |
          | GRADIENT NORM               0.388800117626 Eh/α |
           -------------------------------------------------

------------------------------------------------------------------------
 * finished run on 2026/05/23 at 12:31:15.431     
------------------------------------------------------------------------
 total:
 * wall-time:     0 d,  0 h,  0 min, 13.355 sec
 *  cpu-time:     0 d,  0 h,  0 min, 25.620 sec
 * ratio c/w:     1.918 speedup
 SCF:
 * wall-time:     0 d,  0 h,  0 min, 12.851 sec
 *  cpu-time:     0 d,  0 h,  0 min, 25.353 sec
 * ratio c/w:     1.973 speedup

normal termination of xtb
