      -----------------------------------------------------------      
     |                   =====================                   |     
     |                           x T B                           |     
     |                   =====================                   |     
     |                         S. Grimme                         |     
     |          Mulliken Center for Theoretical Chemistry        |     
     |                    University of Bonn                     |     
      -----------------------------------------------------------      

   * xtb version 6.7.1 (edcfbbe) compiled by 'albert@albert-system' on 2024-07-22

   xtb is free software: you can redistribute it and/or modify it under
   the terms of the GNU Lesser General Public License as published by
   the Free Software Foundation, either version 3 of the License, or
   (at your option) any later version.
   
   xtb is distributed in the hope that it will be useful,
   but WITHOUT ANY WARRANTY; without even the implied warranty of
   MERCHANTABILITY or FITNESS FOR A PARTICULAR PURPOSE.  See the
   GNU Lesser General Public License for more details.
   
   Cite this work as:
   * C. Bannwarth, E. Caldeweyher, S. Ehlert, A. Hansen, P. Pracht,
     J. Seibert, S. Spicher, S. Grimme, WIREs Comput. Mol. Sci., 2020, 11,
     e01493. DOI: 10.1002/wcms.1493
   
   for GFN2-xTB:
   * C. Bannwarth, S. Ehlert and S. Grimme., J. Chem. Theory Comput., 2019,
     15, 1652-1671. DOI: 10.1021/acs.jctc.8b01176
   for GFN1-xTB:
   * S. Grimme, C. Bannwarth, P. Shushkov, J. Chem. Theory Comput., 2017,
     13, 1989-2009. DOI: 10.1021/acs.jctc.7b00118
   for GFN0-xTB:
   * P. Pracht, E. Caldeweyher, S. Ehlert, S. Grimme, ChemRxiv, 2019, preprint.
     DOI: 10.26434/chemrxiv.8326202.v1
   for GFN-FF:
   * S. Spicher and S. Grimme, Angew. Chem. Int. Ed., 2020, 59, 15665-15673.
     DOI: 10.1002/anie.202004239
   
   for ALPB and GBSA implicit solvation:
   * S. Ehlert, M. Stahn, S. Spicher, S. Grimme, J. Chem. Theory Comput.,
     2021, 17, 4250-4261. DOI: 10.1021/acs.jctc.1c00471
   
   for ddCOSMO and CPCM-X implicit solvation:
   * M. Stahn, S. Ehlert, S. Grimme, J. Phys. Chem. A,
     2023, XX, XXXX-XXXX. DOI: 10.1021/acs.jpca.3c04382
   
   for DFT-D4:
   * E. Caldeweyher, C. Bannwarth and S. Grimme, J. Chem. Phys., 2017,
     147, 034112. DOI: 10.1063/1.4993215
   * E. Caldeweyher, S. Ehlert, A. Hansen, H. Neugebauer, S. Spicher,
     C. Bannwarth and S. Grimme, J. Chem. Phys., 2019, 150, 154122.
     DOI: 10.1063/1.5090222
   * E. Caldeweyher, J.-M. Mewes, S. Ehlert and S. Grimme, Phys. Chem. Chem. Phys.
     2020, 22, 8499-8512. DOI: 10.1039/D0CP00502A
   
   for sTDA-xTB:
   * S. Grimme and C. Bannwarth, J. Chem. Phys., 2016, 145, 054103.
     DOI: 10.1063/1.4959605
   
   in the mass-spec context:
   * V. Asgeirsson, C. Bauer and S. Grimme, Chem. Sci., 2017, 8, 4879.
     DOI: 10.1039/c7sc00601b
   * J. Koopman and S. Grimme, ACS Omega 2019, 4, 12, 15120-15133.
     DOI: 10.1021/acsomega.9b02011
   
   for metadynamics refer to:
   * S. Grimme, J. Chem. Theory Comput., 2019, 155, 2847-2862
     DOI: 10.1021/acs.jctc.9b00143
   
   for SPH calculations refer to:
   * S. Spicher and S. Grimme, J. Chem. Theory Comput., 2021, 17, 1701-1714
     DOI: 10.1021/acs.jctc.0c01306
   
   for ONIOM refer to:
   * C. Plett, A. Katbashev, S. Ehlert, S. Grimme, M. Bursch,
     Phys. Chem. Chem. Phys., 2023, 25, 17860-17868. DOI: 10.1039/D3CP02178E
   
   for DIPRO refer to:
   * J. Kohn, N. Gildemeister, S. Grimme, D. Fazzi, A. Hansen,
     J. Chem. Phys., 2023, just accepted.
   
   for PTB refer to:
   * S. Grimme, M. Mueller, A. Hansen, J. Chem. Phys., 2023, 158, 124111.
     DOI: 10.1063/5.0137838
   
   with help from (in alphabetical order)
   P. Atkinson, C. Bannwarth, F. Bohle, G. Brandenburg, E. Caldeweyher
   M. Checinski, S. Dohm, S. Ehlert, S. Ehrlich, I. Gerasimov, C. Hölzer
   A. Katbashev, J. Kohn, J. Koopman, C. Lavigne, S. Lehtola, F. März, M. Müller,
   F. Musil, H. Neugebauer, J. Pisarek, C. Plett, P. Pracht, F. Pultar,
   J. Seibert, P. Shushkov, S. Spicher, M. Stahn, M. Steiner, T. Strunk,
   J. Stückrath, T. Rose, and J. Unsleber
   
 * started run on 2026/05/23 at 08:18:17.731     
   ID    Z sym.   atoms
    1    7 N      1, 5, 10, 17, 23, 28, 35
    2    6 C      2, 3, 6-8, 11-14, 16, 20, 21, 24-26, 29, 31-34, 36-40
    3    8 O      4, 9, 15, 18, 19, 22, 27, 30
    4    1 H      41-70

           -------------------------------------------------
          |                Calculation Setup                |
           -------------------------------------------------

          program call               : /home/xchen/software/xtb-6.7.1/xtb-dist/bin/xtb /home/xchen/Test/benchmark/md_sampled/01_6_0109_n1/snap_0177.xyz --charge -1 --gfn 2 --norestart
          coordinate file            : /home/xchen/Test/benchmark/md_sampled/01_6_0109_n1/snap_0177.xyz
          omp threads                :                    48


           -------------------------------------------------
          |                 G F N 2 - x T B                 |
           -------------------------------------------------

        Reference                      10.1021/acs.jctc.8b01176
      * Hamiltonian:
        H0-scaling (s, p, d)           1.850000    2.230000    2.230000
        zeta-weighting                 0.500000
      * Dispersion:
        s8                             2.700000
        a1                             0.520000
        a2                             5.000000
        s9                             5.000000
      * Repulsion:
        kExp                           1.500000    1.000000
        rExp                           1.000000
      * Coulomb:
        alpha                          2.000000
        third order                    shell-resolved
        anisotropic                    true
        a3                             3.000000
        a5                             4.000000
        cn-shift                       1.200000
        cn-exp                         4.000000
        max-rad                        5.000000


          ...................................................
          :                      SETUP                      :
          :.................................................:
          :  # basis functions                 190          :
          :  # atomic orbitals                 190          :
          :  # shells                          110          :
          :  # electrons                       214          :
          :  max. iterations                   250          :
          :  Hamiltonian                  GFN2-xTB          :
          :  restarted?                      false          :
          :  GBSA solvation                  false          :
          :  PC potential                    false          :
          :  electronic temp.          300.0000000     K    :
          :  accuracy                    1.0000000          :
          :  -> integral cutoff          0.2500000E+02      :
          :  -> integral neglect         0.1000000E-07      :
          :  -> SCF convergence          0.1000000E-05 Eh   :
          :  -> wf. convergence          0.1000000E-03 e    :
          :  Broyden damping             0.4000000          :
          :  net charge                         -1          :
          :  unpaired electrons                  0          :
          ...................................................

 iter      E             dE          RMSdq      gap      omega  full diag
   1   -122.9930306 -0.122993E+03  0.464E+00    3.06       0.0  T
   2   -123.3625543 -0.369524E+00  0.261E+00    2.20       1.0  T
   3   -123.3861126 -0.235583E-01  0.147E+00    1.13       1.0  T
   4   -122.8721399  0.513973E+00  0.190E+00    0.03       1.0  T
   5   -123.3898270 -0.517687E+00  0.447E-01    0.97       1.0  T
   6   -123.4015330 -0.117060E-01  0.172E-01    0.78       1.0  T
   7   -123.4018811 -0.348140E-03  0.130E-01    0.83       1.0  T
   8   -123.4021007 -0.219535E-03  0.102E-01    0.80       1.0  T
   9   -123.4022714 -0.170723E-03  0.833E-02    0.76       1.0  T
  10   -123.4023733 -0.101948E-03  0.708E-02    0.71       1.0  T
  11   -123.4024532 -0.798277E-04  0.598E-02    0.66       1.0  T
  12   -123.4025474 -0.942115E-04  0.440E-02    0.59       1.0  T
  13   -123.4026524 -0.105047E-03  0.131E-02    0.42       1.0  T
  14   -123.4026632 -0.108082E-04  0.297E-03    0.34       4.0  T
  15   -123.4026636 -0.416524E-06  0.170E-03    0.34       7.0  T
  16   -123.4026639 -0.223184E-06  0.411E-04    0.35      29.1  T
  17   -123.4026639 -0.277477E-08  0.304E-04    0.35      39.3  T

   *** convergence criteria satisfied after 17 iterations ***

         #    Occupation            Energy/Eh            Energy/eV
      -------------------------------------------------------------
         1        2.0000           -0.6651416             -18.0994
       ...           ...                  ...                  ...
       101        2.0000           -0.3197647              -8.7012
       102        2.0000           -0.3157110              -8.5909
       103        2.0000           -0.3051295              -8.3030
       104        2.0000           -0.3011376              -8.1944
       105        2.0000           -0.2281754              -6.2090
       106        2.0000           -0.2148629              -5.8467
       107        1.9978           -0.1984866              -5.4011 (HOMO)
       108        0.0021           -0.1855034              -5.0478 (LUMO)
       109        0.0001           -0.1826890              -4.9712
       110                         -0.1656058              -4.5064
       111                         -0.1633655              -4.4454
       112                         -0.1576945              -4.2911
       ...                                ...                  ...
       190                          0.8603792              23.4121
      -------------------------------------------------------------
                  HL-Gap            0.0129832 Eh            0.3533 eV
             Fermi-level           -0.1920190 Eh           -5.2251 eV

 SCC (total)                   0 d,  0 h,  0 min, 17.250 sec
 SCC setup                      ...        0 min,  0.043 sec (  0.249%)
 Dispersion                     ...        0 min,  0.078 sec (  0.450%)
 classical contributions        ...        0 min,  0.011 sec (  0.063%)
 integral evaluation            ...        0 min,  0.345 sec (  2.000%)
 iterations                     ...        0 min, 16.038 sec ( 92.975%)
 molecular gradient             ...        0 min,  0.685 sec (  3.969%)
 printout                       ...        0 min,  0.051 sec (  0.293%)

         :::::::::::::::::::::::::::::::::::::::::::::::::::::
         ::                     SUMMARY                     ::
         :::::::::::::::::::::::::::::::::::::::::::::::::::::
         :: total energy            -122.038578215381 Eh    ::
         :: gradient norm              0.280241460982 Eh/a0 ::
         :: HOMO-LUMO gap              0.353289700263 eV    ::
         ::.................................................::
         :: SCC energy              -123.401847321593 Eh    ::
         :: -> isotropic ES            0.397948779468 Eh    ::
         :: -> anisotropic ES          0.014107828788 Eh    ::
         :: -> anisotropic XC          0.034182129168 Eh    ::
         :: -> dispersion             -0.079690535643 Eh    ::
         :: repulsion energy           1.363269106212 Eh    ::
         :: add. restraining           0.000000000000 Eh    ::
         :: total charge              -1.000000000000 e     ::
         :::::::::::::::::::::::::::::::::::::::::::::::::::::

           -------------------------------------------------
          |                Property Printout                |
           -------------------------------------------------

    * Orbital Energies and Occupations

         #    Occupation            Energy/Eh            Energy/eV
      -------------------------------------------------------------
         1        2.0000           -0.6651416             -18.0994
       ...           ...                  ...                  ...
        95        2.0000           -0.3371658              -9.1747
        96        2.0000           -0.3344965              -9.1021
        97        2.0000           -0.3293070              -8.9609
        98        2.0000           -0.3280173              -8.9258
        99        2.0000           -0.3249448              -8.8422
       100        2.0000           -0.3209929              -8.7347
       101        2.0000           -0.3197647              -8.7012
       102        2.0000           -0.3157110              -8.5909
       103        2.0000           -0.3051295              -8.3030
       104        2.0000           -0.3011376              -8.1944
       105        2.0000           -0.2281754              -6.2090
       106        2.0000           -0.2148629              -5.8467
       107        1.9978           -0.1984866              -5.4011 (HOMO)
       108        0.0021           -0.1855034              -5.0478 (LUMO)
       109        0.0001           -0.1826890              -4.9712
       110                         -0.1656058              -4.5064
       111                         -0.1633655              -4.4454
       112                         -0.1576945              -4.2911
       113                         -0.1569022              -4.2695
       114                         -0.1543551              -4.2002
       115                         -0.1456091              -3.9622
       116                         -0.1153305              -3.1383
       117                         -0.0432978              -1.1782
       118                          0.0005582               0.0152
       ...                                ...                  ...
       190                          0.8603792              23.4121
      -------------------------------------------------------------
                  HL-Gap            0.0129832 Eh            0.3533 eV
             Fermi-level           -0.1920190 Eh           -5.2251 eV

     #   Z          covCN         q      C6AA      α(0)
     1   7 N        2.693    -0.175    24.785     7.394
     2   6 C        3.773    -0.010    20.781     6.496
     3   6 C        2.743     0.270    22.430     7.755
     4   8 O        0.859    -0.415    21.983     6.286
     5   7 N        2.678    -0.197    25.284     7.468
     6   6 C        3.786     0.030    20.082     6.383
     7   6 C        2.790     0.262    22.583     7.784
     8   6 C        3.789     0.011    20.407     6.434
     9   8 O        0.867    -0.483    23.415     6.488
    10   7 N        2.693    -0.170    24.673     7.377
    11   6 C        3.778    -0.039    21.301     6.575
    12   6 C        2.764     0.256    22.687     7.800
    13   6 C        3.765    -0.102    22.496     6.760
    14   6 C        3.744    -0.021    21.028     6.542
    15   8 O        0.857    -0.456    22.839     6.407
    16   6 C        2.658     0.369    20.743     7.452
    17   7 N        2.681    -0.172    24.726     7.385
    18   8 O        0.856    -0.550    24.911     6.692
    19   8 O        0.856    -0.581    25.649     6.790
    20   6 C        2.744     0.268    22.466     7.761
    21   6 C        3.787     0.014    20.358     6.426
    22   8 O        0.859    -0.414    21.955     6.282
    23   7 N        2.683    -0.183    24.964     7.421
    24   6 C        3.755    -0.117    22.795     6.808
    25   6 C        2.741     0.255    22.705     7.802
    26   6 C        3.756    -0.022    21.015     6.536
    27   8 O        0.857    -0.425    22.184     6.315
    28   7 N        2.681    -0.176    24.804     7.397
    29   6 C        2.770     0.268    22.470     7.763
    30   8 O        0.858    -0.440    22.498     6.359
    31   6 C        3.771    -0.052    21.544     6.614
    32   6 C        3.009    -0.035    28.860     8.812
    33   6 C        2.998     0.020    27.542     8.609
    34   6 C        3.137    -0.007    27.957     8.654
    35   7 N        2.772    -0.131    23.828     7.250
    36   6 C        2.983     0.036    27.177     8.551
    37   6 C        2.900    -0.044    29.092     8.844
    38   6 C        2.900    -0.042    29.033     8.835
    39   6 C        2.908    -0.044    29.083     8.843
    40   6 C        2.899    -0.045    29.120     8.848
    41   1 H        0.862     0.198     1.118     1.656
    42   1 H        0.917     0.086     1.923     2.169
    43   1 H        0.925     0.065     2.137     2.286
    44   1 H        0.859     0.177     1.234     1.740
    45   1 H        0.926     0.070     2.081     2.256
    46   1 H        0.922     0.063     2.159     2.298
    47   1 H        0.861     0.197     1.120     1.658
    48   1 H        0.913     0.035     2.513     2.479
    49   1 H        0.923     0.080     1.979     2.200
    50   1 H        0.923    -0.003     3.118     2.762
    51   1 H        0.914    -0.020     3.423     2.894
    52   1 H        0.915     0.070     2.086     2.259
    53   1 H        0.920     0.091     1.874     2.141
    54   1 H        0.851     0.203     1.094     1.639
    55   1 H        0.925     0.059     2.207     2.323
    56   1 H        0.859     0.176     1.238     1.743
    57   1 H        0.922     0.035     2.519     2.482
    58   1 H        0.924     0.047     2.364     2.404
    59   1 H        0.927     0.064     2.148     2.292
    60   1 H        0.926     0.066     2.128     2.281
    61   1 H        0.925     0.097     1.816     2.108
    62   1 H        0.861     0.214     1.037     1.595
    63   1 H        0.901     0.042     2.432     2.440
    64   1 H        0.924     0.078     1.997     2.210
    65   1 H        0.927     0.055     2.256     2.349
    66   1 H        0.858     0.152     1.389     1.846
    67   1 H        0.926     0.032     2.558     2.501
    68   1 H        0.920     0.013     2.844     2.637
    69   1 H        0.920     0.014     2.827     2.629
    70   1 H        0.926     0.029     2.600     2.521

 Mol. C6AA /au·bohr⁶  :      56243.194369
 Mol. C8AA /au·bohr⁸  :    1292633.105859
 Mol. α(0) /au        :        359.796587


Wiberg/Mayer (AO) data.
largest (>0.10) Wiberg bond orders for each atom

 ---------------------------------------------------------------------------
     #   Z sym  total        # sym  WBO       # sym  WBO       # sym  WBO
 ---------------------------------------------------------------------------
     1   7 N    3.421 --     7 C    1.254     2 C    1.008    41 H    0.918
                             9 O    0.155
     2   6 C    3.963 --     1 N    1.008    43 H    0.959    42 H    0.939
                             3 C    0.928
     3   6 C    3.948 --     4 O    1.724     5 N    1.225     2 C    0.928
     4   8 O    2.036 --     3 C    1.724     5 N    0.193
     5   7 N    3.406 --     3 C    1.225     6 C    0.972    44 H    0.937
                             4 O    0.193
     6   6 C    3.963 --     5 N    0.972    31 C    0.968    29 C    0.953
                            45 H    0.943
     7   6 C    3.939 --     9 O    1.632     1 N    1.254     8 C    0.956
     8   6 C    3.948 --    10 N    0.982     7 C    0.956    46 H    0.949
                            11 C    0.921
     9   8 O    1.945 --     7 C    1.632     1 N    0.155
    10   7 N    3.463 --    12 C    1.285     8 C    0.982    47 H    0.923
                            15 O    0.198
    11   6 C    3.973 --    13 C    1.030    48 H    0.975    49 H    0.967
                             8 C    0.921
    12   6 C    3.956 --    15 O    1.627    10 N    1.285    14 C    0.983
    13   6 C    3.942 --    11 C    1.030    51 H    0.972    50 H    0.966
                            16 C    0.792
    14   6 C    3.964 --    12 C    0.983    17 N    0.982    52 H    0.951
                            53 H    0.942
    15   8 O    1.945 --    12 C    1.627    10 N    0.198
    16   6 C    3.940 --    18 O    1.585    19 O    1.540    13 C    0.792
    17   7 N    3.470 --    20 C    1.303    14 C    0.982    54 H    0.906
                            22 O    0.214
    18   8 O    1.913 --    16 C    1.585    19 O    0.234
    19   8 O    1.857 --    16 C    1.540    18 O    0.234
    20   6 C    3.951 --    22 O    1.702    17 N    1.303    21 C    0.870
    21   6 C    3.962 --    23 N    1.006    24 C    1.003    55 H    0.952
                            20 C    0.870
    22   8 O    2.051 --    20 C    1.702    17 N    0.214
    23   7 N    3.417 --    25 C    1.217    21 C    1.006    56 H    0.934
                            27 O    0.187
    24   6 C    3.986 --    21 C    1.003    57 H    0.984    58 H    0.983
                            59 H    0.981
    25   6 C    3.941 --    27 O    1.699    23 N    1.217    26 C    0.938
    26   6 C    3.972 --    28 N    1.008    60 H    0.967    61 H    0.942
                            25 C    0.938
    27   8 O    2.032 --    25 C    1.699    23 N    0.187
    28   7 N    3.413 --    29 C    1.235    26 C    1.008    62 H    0.912
                            30 O    0.186
    29   6 C    3.948 --    30 O    1.684    28 N    1.235     6 C    0.953
    30   8 O    1.997 --    29 C    1.684    28 N    0.186
    31   6 C    3.984 --    32 C    1.000    64 H    0.970     6 C    0.968
                            63 H    0.964
    32   6 C    3.968 --    33 C    1.583    34 C    1.201    31 C    1.000
    33   6 C    3.957 --    32 C    1.583    35 N    1.217    65 H    0.964
    34   6 C    3.986 --    37 C    1.311    36 C    1.285    32 C    1.201
    35   7 N    3.482 --    33 C    1.217    36 C    1.103    66 H    0.944
    36   6 C    3.948 --    38 C    1.337    34 C    1.285    35 N    1.103
    37   6 C    3.988 --    39 C    1.520    34 C    1.311    67 H    0.964
                            38 C    0.108
    38   6 C    3.985 --    40 C    1.510    36 C    1.337    68 H    0.967
                            37 C    0.108
    39   6 C    3.985 --    37 C    1.520    40 C    1.343    69 H    0.973
    40   6 C    3.987 --    38 C    1.510    39 C    1.343    70 H    0.973
    41   1 H    0.961 --     1 N    0.918
    42   1 H    0.992 --     2 C    0.939
    43   1 H    0.995 --     2 C    0.959
    44   1 H    0.968 --     5 N    0.937
    45   1 H    0.995 --     6 C    0.943
    46   1 H    0.996 --     8 C    0.949
    47   1 H    0.961 --    10 N    0.923
    48   1 H    0.999 --    11 C    0.975
    49   1 H    0.994 --    11 C    0.967
    50   1 H    1.000 --    13 C    0.966
    51   1 H    1.000 --    13 C    0.972
    52   1 H    0.994 --    14 C    0.951
    53   1 H    0.991 --    14 C    0.942
    54   1 H    0.959 --    17 N    0.906
    55   1 H    0.996 --    21 C    0.952
    56   1 H    0.969 --    23 N    0.934
    57   1 H    0.998 --    24 C    0.984
    58   1 H    0.997 --    24 C    0.983
    59   1 H    0.996 --    24 C    0.981
    60   1 H    0.995 --    26 C    0.967
    61   1 H    0.990 --    26 C    0.942
    62   1 H    0.954 --    28 N    0.912
    63   1 H    0.998 --    31 C    0.964
    64   1 H    0.993 --    31 C    0.970
    65   1 H    0.996 --    33 C    0.964
    66   1 H    0.976 --    35 N    0.944
    67   1 H    0.999 --    37 C    0.964
    68   1 H    0.999 --    38 C    0.967
    69   1 H    0.999 --    39 C    0.973
    70   1 H    0.999 --    40 C    0.973
 ---------------------------------------------------------------------------

Topologies differ in total number of bonds
Writing topology from bond orders to xtbtopo.mol

molecular dipole:
                 x           y           z       tot (Debye)
 q only:        3.068       9.431       8.376
   full:        2.836       9.543       8.887      33.919
molecular quadrupole (traceless):
                xx          xy          yy          xz          yz          zz
 q only:       40.612     -54.817     -32.038     -44.367    -128.759      -8.574
  q+dip:       25.412     -59.593     -25.163     -44.769    -134.073      -0.250
   full:       27.975     -60.103     -26.682     -46.744    -133.485      -1.293


           -------------------------------------------------
          | TOTAL ENERGY             -122.038578215381 Eh   |
          | GRADIENT NORM               0.280241460982 Eh/α |
          | HOMO-LUMO GAP               0.353289700263 eV   |
           -------------------------------------------------

------------------------------------------------------------------------
 * finished run on 2026/05/23 at 08:18:35.708     
------------------------------------------------------------------------
 total:
 * wall-time:     0 d,  0 h,  0 min, 17.976 sec
 *  cpu-time:     0 d,  0 h,  0 min, 23.669 sec
 * ratio c/w:     1.317 speedup
 SCF:
 * wall-time:     0 d,  0 h,  0 min, 17.251 sec
 *  cpu-time:     0 d,  0 h,  0 min, 23.090 sec
 * ratio c/w:     1.338 speedup

normal termination of xtb
