      -----------------------------------------------------------      
     |                   =====================                   |     
     |                           x T B                           |     
     |                   =====================                   |     
     |                         S. Grimme                         |     
     |          Mulliken Center for Theoretical Chemistry        |     
     |                    University of Bonn                     |     
      -----------------------------------------------------------      

   * xtb version 6.7.1 (26dd68d) compiled by 'froitzheim@fs7' on 2026-05-14

   xtb is free software: you can redistribute it and/or modify it under
   the terms of the GNU Lesser General Public License as published by
   the Free Software Foundation, either version 3 of the License, or
   (at your option) any later version.
   
   xtb is distributed in the hope that it will be useful,
   but WITHOUT ANY WARRANTY; without even the implied warranty of
   MERCHANTABILITY or FITNESS FOR A PARTICULAR PURPOSE.  See the
   GNU Lesser General Public License for more details.
   
   Cite this work as:
   * C. Bannwarth, E. Caldeweyher, S. Ehlert, A. Hansen, P. Pracht,
     J. Seibert, S. Spicher, S. Grimme, WIREs Comput. Mol. Sci., 2020, 11,
     e01493. DOI: 10.1002/wcms.1493
   
   for g-xTB:
   * T. Froitzheim, M. Müller, A. Hansen, S. Grimme, ChemRxiv, 2025, preprint.
     DOI: 10.26434/chemrxiv-2025-bjxv
   for GFN2-xTB:
   * C. Bannwarth, S. Ehlert and S. Grimme., J. Chem. Theory Comput., 2019,
     15, 1652-1671. DOI: 10.1021/acs.jctc.8b01176
   for GFN1-xTB:
   * S. Grimme, C. Bannwarth, P. Shushkov, J. Chem. Theory Comput., 2017,
     13, 1989-2009. DOI: 10.1021/acs.jctc.7b00118
   for GFN0-xTB:
   * P. Pracht, E. Caldeweyher, S. Ehlert, S. Grimme, ChemRxiv, 2019, preprint.
     DOI: 10.26434/chemrxiv.8326202.v1
   for GFN-FF:
   * S. Spicher and S. Grimme, Angew. Chem. Int. Ed., 2020, 59, 15665-15673.
     DOI: 10.1002/anie.202004239
   
   for ALPB and GBSA implicit solvation:
   * S. Ehlert, M. Stahn, S. Spicher, S. Grimme, J. Chem. Theory Comput.,
     2021, 17, 4250-4261. DOI: 10.1021/acs.jctc.1c00471
   
   for ddCOSMO and CPCM-X implicit solvation:
   * M. Stahn, S. Ehlert, S. Grimme, J. Phys. Chem. A,
     2023, XX, XXXX-XXXX. DOI: 10.1021/acs.jpca.3c04382
   
   for DFT-D4:
   * E. Caldeweyher, C. Bannwarth and S. Grimme, J. Chem. Phys., 2017,
     147, 034112. DOI: 10.1063/1.4993215
   * E. Caldeweyher, S. Ehlert, A. Hansen, H. Neugebauer, S. Spicher,
     C. Bannwarth and S. Grimme, J. Chem. Phys., 2019, 150, 154122.
     DOI: 10.1063/1.5090222
   * E. Caldeweyher, J.-M. Mewes, S. Ehlert and S. Grimme, Phys. Chem. Chem. Phys.
     2020, 22, 8499-8512. DOI: 10.1039/D0CP00502A
   
   for sTDA-xTB:
   * S. Grimme and C. Bannwarth, J. Chem. Phys., 2016, 145, 054103.
     DOI: 10.1063/1.4959605
   
   in the mass-spec context:
   * V. Asgeirsson, C. Bauer and S. Grimme, Chem. Sci., 2017, 8, 4879.
     DOI: 10.1039/c7sc00601b
   * J. Koopman and S. Grimme, ACS Omega 2019, 4, 12, 15120-15133.
     DOI: 10.1021/acsomega.9b02011
   
   for metadynamics refer to:
   * S. Grimme, J. Chem. Theory Comput., 2019, 155, 2847-2862
     DOI: 10.1021/acs.jctc.9b00143
   
   for SPH calculations refer to:
   * S. Spicher and S. Grimme, J. Chem. Theory Comput., 2021, 17, 1701-1714
     DOI: 10.1021/acs.jctc.0c01306
   
   for ONIOM refer to:
   * C. Plett, A. Katbashev, S. Ehlert, S. Grimme, M. Bursch,
     Phys. Chem. Chem. Phys., 2023, 25, 17860-17868. DOI: 10.1039/D3CP02178E
   
   for DIPRO refer to:
   * J. Kohn, N. Gildemeister, S. Grimme, D. Fazzi, A. Hansen,
     J. Chem. Phys. 159, 144106 (2023). DOI: 10.1063/5.0167484
   
   for PTB refer to:
   * S. Grimme, M. Mueller, A. Hansen, J. Chem. Phys., 2023, 158, 124111.
     DOI: 10.1063/5.0137838
   
   with help from (in alphabetical order)
   P. Atkinson, C. Bannwarth, F. Bohle, G. Brandenburg, E. Caldeweyher,
   M. Checinski, S. Dohm, S. Ehlert, S. Ehrlich, M. Friede, T. Froitzheim,
   I. Gerasimov, C. Hölzer, A. Katbashev, J. Kohn, J. Koopman, C. Lavigne,
   S. Lehtola, F. März, M. Müller, F. Musil, H. Neugebauer, J. Pisarek,
   C. Plett, P. Pracht, F. Pultar, J. Seibert, P. Shushkov, S. Spicher,
   M. Stahn, M. Steiner, T. Strunk, J. Stückrath, T. Rose, and J. Unsleber
   
 * started run on 2026/05/23 at 12:30:51.447     
   ID    Z sym.   atoms
    1    7 N      1, 5, 10, 17, 23, 25, 28, 34, 41, 46, 50
    2    6 C      2, 3, 6-8, 11-15, 18-21, 24, 26, 27, 29-32, 35-38, 40,
                  42-45, 48, 49, 51-53
    3    8 O      4, 9, 16, 22, 33, 39, 47
    4    1 H      54-110

           -------------------------------------------------
          |                Calculation Setup                |
           -------------------------------------------------

          program call               : /home/xchen/software/xtb-6.7.1-gxtb/bin/xtb /home/xchen/Test/benchmark/md_sampled/07_7_0083_0/snap_0032.xyz --charge 0 --gxtb --norestart
          coordinate file            : /home/xchen/Test/benchmark/md_sampled/07_7_0083_0/snap_0032.xyz
          omp threads                :                    48

core increment energy         -2.2595336125909E+03 Eh
dispersion energy              2.5452770388464E-02 Eh
molecular charge               0.0000000000000E+00 e
number of electrons            2.9399999999735E+02 e
number of unpaired electrons   0.0000000000000E+00 e
wavefunction                   restricted
integral cutoff                2.6907767250513E+01 bohr
energy convergence             1.0000000000000E-06 Eh
density convergence            2.0000000000000E-05 e

------------------------------------------------------------
  cycle        total energy    energy error   density error
------------------------------------------------------------
      1     -2495.661212166  -2.3615305E+02   0.0000000E+00
      2     -2496.070948706  -4.0973654E-01   1.8819318E-02
      3     -2496.323120256  -2.5217155E-01   1.4917337E-02
      4     -2496.833594899  -5.1047464E-01   1.1874817E-02
      5     -2496.844966448  -1.1371550E-02   9.2333159E-04
      6     -2496.845670003  -7.0355486E-04   1.6714318E-04
      7     -2496.845740711  -7.0707565E-05   5.2497576E-05
      8     -2496.845746743  -6.0325051E-06   1.5146173E-05
      9     -2496.845747541  -7.9780713E-07   4.6897402E-06
------------------------------------------------------------

electronic energy             -2.3733758772033E+02 Eh
total energy                  -2.4968457475408E+03 Eh

Post processing:
 | Mayer-Wiberg bond orders
 | Molecular Multipole Moments

 total:                                  40.875 sec
 - increment                              0.000 sec (  0%)
 - repulsion                              0.021 sec (  0%)
 - dispersion                             0.488 sec (  1%)
 - coulomb                                0.125 sec (  0%)
 - exchange                               0.008 sec (  0%)
 - hamiltonian                           25.125 sec ( 61%)
 - acp                                    0.504 sec (  1%)
 - spin polarization                      0.000 sec (  0%)
 - post processing                        0.122 sec (  0%)
 - scc                                   13.131 sec ( 32%)
 - coulomb gradient                       0.156 sec (  0%)
 - dispersion gradient                    0.085 sec (  0%)
 - exchange gradient                      0.170 sec (  0%)
 - repulsion gradient                     0.016 sec (  0%)
 - acp gradient                           0.517 sec (  1%)
 - hamiltonian gradient                   0.522 sec (  1%)
 - gradient                               1.466 sec (  3%)

         :::::::::::::::::::::::::::::::::::::::::::::::::::::
         ::                     SUMMARY                     ::
         :::::::::::::::::::::::::::::::::::::::::::::::::::::
         :: total energy           -2496.845747540846 Eh    ::
         :: gradient norm              0.409997270843 Eh/a0 ::
         :: HOMO-LUMO gap              9.225339817858 eV    ::
         ::.................................................::
         :: add. restraining           0.000000000000 Eh    ::
         :: total charge              -0.000000000000 e     ::
         :::::::::::::::::::::::::::::::::::::::::::::::::::::

           -------------------------------------------------
          |                Property Printout                |
           -------------------------------------------------

    * Orbital Energies and Occupations
------------------------------------------------------------------
      #    Occupation            Energy/Eh            Energy/eV
------------------------------------------------------------------
      1        2.0000           -1.3413129             -36.4990
    ...           ...                  ...                  ...
    135        2.0000           -0.3636857              -9.8964
    136        2.0000           -0.3598702              -9.7926
    137        2.0000           -0.3574327              -9.7262
    138        2.0000           -0.3561383              -9.6910
    139        2.0000           -0.3502609              -9.5311
    140        2.0000           -0.3479330              -9.4677
    141        2.0000           -0.3441338              -9.3644
    142        2.0000           -0.3418703              -9.3028
    143        2.0000           -0.3386414              -9.2149
    144        2.0000           -0.3318655              -9.0305
    145        2.0000           -0.3316596              -9.0249
    146        2.0000           -0.3264941              -8.8844
    147        2.0000           -0.3192413              -8.6870 (HOMO)
    148                          0.0197837               0.5383 (LUMO)
    149                          0.0348982               0.9496
    150                          0.0392179               1.0672
    151                          0.0423474               1.1523
    152                          0.0441695               1.2019
    153                          0.0508843               1.3846
    154                          0.0612782               1.6675
    155                          0.0793945               2.1604
    156                          0.1098988               2.9905
    157                          0.1318270               3.5872
    158                          0.1618740               4.4048
    ...                                ...                  ...
    269                          0.8404761              22.8705
------------------------------------------------------------------
               HL-Gap            0.3390250 Eh            9.2253 eV
------------------------------------------------------------------

Atomic charges and shell populations (in atomic units):
------------------------------------------------------
     #    Z                q          p(s)       p(p)
------------------------------------------------------
     1    7 N      -0.328747      1.337900   3.990848
     2    6 C      -0.070531      1.117586   2.952945
     3    6 C       0.402120      1.100497   2.497383
     4    8 O      -0.547020      1.852743   4.694278
     5    7 N      -0.319682      1.365049   3.954633
     6    6 C       0.000007      1.138073   2.861920
     7    6 C       0.414161      1.100129   2.485710
     8    6 C       0.002396      1.155913   2.841691
     9    8 O      -0.531369      1.848550   4.682819
    10    7 N      -0.286696      1.360644   3.926052
    11    6 C      -0.164427      1.166332   2.998095
    12    6 C      -0.045888      1.152509   2.893379
    13    6 C       0.410987      1.101626   2.487387
    14    6 C      -0.170074      1.153576   3.016499
    15    6 C       0.005092      1.121710   2.873197
    16    8 O      -0.519923      1.857464   4.662459
    17    7 N      -0.339085      1.395108   3.943977
    18    6 C      -0.167012      1.127892   3.039120
    19    6 C       0.434851      1.102639   2.462510
    20    6 C       0.020810      1.128788   2.850401
    21    6 C       0.018286      1.114481   2.867233
    22    8 O      -0.550907      1.859279   4.691628
    23    7 N      -0.298088      1.588560   3.709528
    24    6 C      -0.107374      1.137139   2.970235
    25    7 N      -0.235055      1.363031   3.872024
    26    6 C      -0.153546      1.156711   2.996835
    27    6 C       0.061060      1.117416   2.821524
    28    7 N      -0.239529      1.353030   3.886499
    29    6 C      -0.076911      1.137877   2.939034
    30    6 C       0.430709      1.095347   2.473944
    31    6 C      -0.182866      1.154157   3.028708
    32    6 C      -0.015152      1.127186   2.887966
    33    8 O      -0.544428      1.850995   4.693433
    34    7 N      -0.312212      1.348531   3.963681
    35    6 C      -0.202966      1.166329   3.036637
    36    6 C       0.409791      1.105327   2.484882
    37    6 C      -0.185507      1.159386   3.026122
    38    6 C      -0.027396      1.127470   2.899926
    39    8 O      -0.548762      1.857725   4.691037
    40    6 C      -0.229035      1.152413   3.076622
    41    7 N      -0.330102      1.363563   3.966539
    42    6 C      -0.184060      1.145731   3.038329
    43    6 C      -0.099406      1.116071   2.983336
    44    6 C       0.427996      1.102514   2.469490
    45    6 C      -0.178583      1.136580   3.042004
    46    7 N      -0.502105      1.429568   4.072537
    47    8 O      -0.518380      1.853991   4.664389
    48    6 C      -0.185000      1.168845   3.016156
    49    6 C      -0.079075      1.135942   2.943133
    50    7 N      -0.535896      1.359989   4.175907
    51    6 C      -0.117242      1.134721   2.982522
    52    6 C      -0.241772      1.173181   3.068591
    53    6 C      -0.257022      1.172523   3.084500
    54    1 H       0.267409      0.732591
    55    1 H       0.149288      0.850712
    56    1 H       0.099367      0.900633
    57    1 H       0.255356      0.744644
    58    1 H       0.130635      0.869365
    59    1 H       0.147237      0.852763
    60    1 H       0.114024      0.885976
    61    1 H       0.099163      0.900837
    62    1 H       0.125958      0.874042
    63    1 H       0.076016      0.923984
    64    1 H       0.111086      0.888914
    65    1 H       0.100965      0.899035
    66    1 H       0.128293      0.871707
    67    1 H       0.279665      0.720335
    68    1 H       0.133479      0.866521
    69    1 H       0.139554      0.860446
    70    1 H       0.126315      0.873685
    71    1 H       0.138494      0.861506
    72    1 H       0.102402      0.897598
    73    1 H       0.100316      0.899684
    74    1 H       0.125991      0.874009
    75    1 H       0.262281      0.737719
    76    1 H       0.100060      0.899940
    77    1 H       0.123899      0.876101
    78    1 H       0.104025      0.895975
    79    1 H       0.084825      0.915175
    80    1 H       0.134794      0.865206
    81    1 H       0.272901      0.727099
    82    1 H       0.107724      0.892276
    83    1 H       0.129402      0.870598
    84    1 H       0.076755      0.923245
    85    1 H       0.098296      0.901704
    86    1 H       0.147385      0.852615
    87    1 H       0.103080      0.896920
    88    1 H       0.108777      0.891223
    89    1 H       0.256847      0.743153
    90    1 H       0.104861      0.895139
    91    1 H       0.101466      0.898534
    92    1 H       0.126678      0.873322
    93    1 H       0.089269      0.910731
    94    1 H       0.101582      0.898418
    95    1 H       0.105922      0.894078
    96    1 H       0.207865      0.792135
    97    1 H       0.217825      0.782175
    98    1 H       0.119542      0.880458
    99    1 H       0.077542      0.922458
   100    1 H       0.077222      0.922778
   101    1 H       0.081478      0.918522
   102    1 H       0.221917      0.778083
   103    1 H       0.222654      0.777346
   104    1 H       0.100541      0.899459
   105    1 H       0.136194      0.863806
   106    1 H       0.082639      0.917361
   107    1 H       0.097107      0.902893
   108    1 H       0.076496      0.923504
   109    1 H       0.073979      0.926021
   110    1 H       0.105728      0.894272
------------------------------------------------------


Wiberg/Mayer (AO) data.
largest (>0.10) Wiberg bond orders for each atom

 ---------------------------------------------------------------------------
     #   Z sym  total        # sym  WBO       # sym  WBO       # sym  WBO
 ---------------------------------------------------------------------------
     1   7 N    3.332 --     7 C    1.207     2 C    0.994    54 O    0.875
                             9 C    0.160
     2   6 C    3.927 --     1 N    0.994     3 C    0.953    56 O    0.948
                            55 O    0.931
     3   6 C    3.879 --     4 C    1.613     5 N    1.250     2 C    0.953
     4   8 C    1.923 --     3 C    1.613     5 N    0.166
     5   7 N    3.350 --     3 C    1.250     6 C    0.944    57 O    0.903
                             4 C    0.166
     6   6 C    3.922 --    51 C    0.968     5 N    0.944    58 O    0.943
                            44 C    0.914
     7   6 C    3.868 --     9 C    1.673     1 N    1.207     8 C    0.916
     8   6 C    3.915 --    11 C    0.969    59 O    0.943    10 N    0.938
                             7 C    0.916
     9   8 C    1.957 --     7 C    1.673     1 N    0.160
    10   7 N    3.355 --    13 C    1.202    12 C    0.942     8 C    0.938
                            16 C    0.156
    11   6 C    3.955 --    14 C    1.007     8 C    0.969    60 O    0.962
                            61 O    0.957
    12   6 C    3.913 --    14 C    1.003    62 O    0.951    63 O    0.947
                            10 N    0.942
    13   6 C    3.868 --    16 C    1.668    10 N    1.202    15 C    0.922
    14   6 C    3.963 --    11 C    1.007    12 C    1.003    64 O    0.959
                            65 O    0.956
    15   6 C    3.936 --    18 C    1.003    66 O    0.942    17 N    0.938
                            13 C    0.922
    16   8 C    1.952 --    13 C    1.668    10 N    0.156
    17   7 N    3.300 --    19 C    1.234    15 C    0.938    67 O    0.883
                            22 C    0.152
    18   6 C    3.951 --    15 C    1.003    20 C    0.987    69 O    0.948
                            68 O    0.932
    19   6 C    3.868 --    22 C    1.639    17 N    1.234    21 C    0.926
    20   6 C    3.944 --    24 C    1.575    23 N    1.230    18 C    0.987
    21   6 C    3.932 --    26 C    0.984    25 N    0.946    70 O    0.939
                            19 C    0.926
    22   8 C    1.919 --    19 C    1.639    17 N    0.152
    23   7 N    3.014 --    27 C    1.594    20 C    1.230
    24   6 C    3.898 --    20 C    1.575    28 N    1.190    71 O    0.950
                            27 C    0.106
    25   7 N    3.371 --    30 C    1.212    29 C    0.947    21 C    0.946
                            33 C    0.152
    26   6 C    3.957 --    31 C    1.000    21 C    0.984    73 O    0.963
                            72 O    0.957
    27   6 C    3.920 --    23 N    1.594    28 N    1.223    74 O    0.944
                            24 C    0.106
    28   7 N    3.502 --    27 C    1.223    24 C    1.190    75 O    0.898
    29   6 C    3.915 --    31 C    1.001    76 O    0.959    77 O    0.949
                            25 N    0.947
    30   6 C    3.871 --    33 C    1.654    25 N    1.212    32 C    0.921
    31   6 C    3.964 --    29 C    1.001    26 C    1.000    79 O    0.967
                            78 O    0.962
    32   6 C    3.928 --    34 N    0.972    35 C    0.958    80 O    0.946
                            30 C    0.921
    33   8 C    1.942 --    30 C    1.654    25 N    0.152
    34   7 N    3.360 --    36 C    1.254    32 C    0.972    81 O    0.880
                            39 C    0.160
    35   6 C    3.952 --    37 C    1.009    82 O    0.961    32 C    0.958
                            83 O    0.957
    36   6 C    3.872 --    39 C    1.632    34 N    1.254    38 C    0.906
    37   6 C    3.966 --    35 C    1.009    40 C    0.995    85 O    0.963
                            84 O    0.961
    38   6 C    3.928 --    41 N    0.982    42 C    0.969    86 O    0.930
                            36 C    0.906
    39   8 C    1.915 --    36 C    1.632    34 N    0.160
    40   6 C    3.961 --    43 C    1.000    37 C    0.995    87 O    0.961
                            88 O    0.953
    41   7 N    3.323 --    44 C    1.188    38 C    0.982    89 O    0.889
                            47 C    0.158
    42   6 C    3.964 --    45 C    1.025    38 C    0.969    91 O    0.952
                            90 O    0.952
    43   6 C    3.951 --    46 N    1.028    40 C    1.000    93 O    0.955
                            92 O    0.945
    44   6 C    3.868 --    47 C    1.686    41 N    1.188     6 C    0.914
    45   6 C    3.968 --    42 C    1.025    48 C    1.000    95 O    0.956
                            94 O    0.951
    46   7 N    2.955 --    43 C    1.028    96 O    0.937    97 O    0.929
    47   8 C    1.966 --    44 C    1.686    41 N    0.158
    48   6 C    3.961 --    45 C    1.000    49 C    0.982    99 O    0.966
                            98 O    0.958
    49   6 C    3.947 --    50 N    1.023    48 C    0.982   100 O    0.966
                           101 O    0.940
    50   7 N    2.948 --    49 C    1.023   103 O    0.932   102 O    0.931
    51   6 C    3.971 --    53 C    1.007    52 C    0.997     6 C    0.968
                           104 O    0.947
    52   6 C    3.942 --    51 C    0.997   106 O    0.973   107 O    0.970
                           105 O    0.949
    53   6 C    3.958 --    51 C    1.007   109 O    0.973   108 O    0.973
                           110 O    0.970
    54   1 O    0.928 --     1 N    0.875
    55   1 O    0.978 --     2 C    0.931
    56   1 O    0.990 --     2 C    0.948
    57   1 O    0.935 --     5 N    0.903
    58   1 O    0.983 --     6 C    0.943
    59   1 O    0.978 --     8 C    0.943
    60   1 O    0.987 --    11 C    0.962
    61   1 O    0.990 --    11 C    0.957
    62   1 O    0.984 --    12 C    0.951
    63   1 O    0.994 --    12 C    0.947
    64   1 O    0.988 --    14 C    0.959
    65   1 O    0.990 --    14 C    0.956
    66   1 O    0.984 --    15 C    0.942
    67   1 O    0.922 --    17 N    0.883
    68   1 O    0.982 --    18 C    0.932
    69   1 O    0.981 --    18 C    0.948
    70   1 O    0.984 --    21 C    0.939
    71   1 O    0.981 --    24 C    0.950
    72   1 O    0.990 --    26 C    0.957
    73   1 O    0.990 --    26 C    0.963
    74   1 O    0.984 --    27 C    0.944
    75   1 O    0.931 --    28 N    0.898
    76   1 O    0.990 --    29 C    0.959
    77   1 O    0.985 --    29 C    0.949
    78   1 O    0.989 --    31 C    0.962
    79   1 O    0.993 --    31 C    0.967
    80   1 O    0.982 --    32 C    0.946
    81   1 O    0.926 --    34 N    0.880
    82   1 O    0.988 --    35 C    0.961
    83   1 O    0.983 --    35 C    0.957
    84   1 O    0.994 --    37 C    0.961
    85   1 O    0.990 --    37 C    0.963
    86   1 O    0.978 --    38 C    0.930
    87   1 O    0.989 --    40 C    0.961
    88   1 O    0.988 --    40 C    0.953
    89   1 O    0.934 --    41 N    0.889
    90   1 O    0.989 --    42 C    0.952
    91   1 O    0.990 --    42 C    0.952
    92   1 O    0.984 --    43 C    0.945
    93   1 O    0.992 --    43 C    0.955
    94   1 O    0.990 --    45 C    0.951
    95   1 O    0.989 --    45 C    0.956
    96   1 O    0.957 --    46 N    0.937
    97   1 O    0.953 --    46 N    0.929
    98   1 O    0.986 --    48 C    0.958
    99   1 O    0.994 --    48 C    0.966
   100   1 O    0.994 --    49 C    0.966
   101   1 O    0.993 --    49 C    0.940
   102   1 O    0.951 --    50 N    0.931
   103   1 O    0.950 --    50 N    0.932
   104   1 O    0.990 --    51 C    0.947
   105   1 O    0.981 --    52 C    0.949
   106   1 O    0.993 --    52 C    0.973
   107   1 O    0.991 --    52 C    0.970
   108   1 O    0.994 --    53 C    0.973
   109   1 O    0.995 --    53 C    0.973
   110   1 O    0.989 --    53 C    0.970
 ---------------------------------------------------------------------------

Topologies differ in total number of bonds
Writing topology from bond orders to xtbtopo.mol

Atomic dipole moments (in atomic units):
---------------------------------------------------------
     #    Z                 x            y            z
---------------------------------------------------------
           total     0.790476    -2.655311     0.907984
---------------------------------------------------------
         |total|     2.915469     7.410384 Debye


           -------------------------------------------------
          | TOTAL ENERGY            -2496.845747540846 Eh   |
          | GRADIENT NORM               0.409997270843 Eh/α |
           -------------------------------------------------

------------------------------------------------------------------------
 * finished run on 2026/05/23 at 12:31:34.043     
------------------------------------------------------------------------
 total:
 * wall-time:     0 d,  0 h,  0 min, 42.596 sec
 *  cpu-time:     0 d,  0 h,  1 min, 17.992 sec
 * ratio c/w:     1.831 speedup
 SCF:
 * wall-time:     0 d,  0 h,  0 min, 42.101 sec
 *  cpu-time:     0 d,  0 h,  1 min, 17.628 sec
 * ratio c/w:     1.844 speedup

normal termination of xtb
