      -----------------------------------------------------------      
     |                   =====================                   |     
     |                           x T B                           |     
     |                   =====================                   |     
     |                         S. Grimme                         |     
     |          Mulliken Center for Theoretical Chemistry        |     
     |                    University of Bonn                     |     
      -----------------------------------------------------------      

   * xtb version 6.7.1 (26dd68d) compiled by 'froitzheim@fs7' on 2026-05-14

   xtb is free software: you can redistribute it and/or modify it under
   the terms of the GNU Lesser General Public License as published by
   the Free Software Foundation, either version 3 of the License, or
   (at your option) any later version.
   
   xtb is distributed in the hope that it will be useful,
   but WITHOUT ANY WARRANTY; without even the implied warranty of
   MERCHANTABILITY or FITNESS FOR A PARTICULAR PURPOSE.  See the
   GNU Lesser General Public License for more details.
   
   Cite this work as:
   * C. Bannwarth, E. Caldeweyher, S. Ehlert, A. Hansen, P. Pracht,
     J. Seibert, S. Spicher, S. Grimme, WIREs Comput. Mol. Sci., 2020, 11,
     e01493. DOI: 10.1002/wcms.1493
   
   for g-xTB:
   * T. Froitzheim, M. Müller, A. Hansen, S. Grimme, ChemRxiv, 2025, preprint.
     DOI: 10.26434/chemrxiv-2025-bjxv
   for GFN2-xTB:
   * C. Bannwarth, S. Ehlert and S. Grimme., J. Chem. Theory Comput., 2019,
     15, 1652-1671. DOI: 10.1021/acs.jctc.8b01176
   for GFN1-xTB:
   * S. Grimme, C. Bannwarth, P. Shushkov, J. Chem. Theory Comput., 2017,
     13, 1989-2009. DOI: 10.1021/acs.jctc.7b00118
   for GFN0-xTB:
   * P. Pracht, E. Caldeweyher, S. Ehlert, S. Grimme, ChemRxiv, 2019, preprint.
     DOI: 10.26434/chemrxiv.8326202.v1
   for GFN-FF:
   * S. Spicher and S. Grimme, Angew. Chem. Int. Ed., 2020, 59, 15665-15673.
     DOI: 10.1002/anie.202004239
   
   for ALPB and GBSA implicit solvation:
   * S. Ehlert, M. Stahn, S. Spicher, S. Grimme, J. Chem. Theory Comput.,
     2021, 17, 4250-4261. DOI: 10.1021/acs.jctc.1c00471
   
   for ddCOSMO and CPCM-X implicit solvation:
   * M. Stahn, S. Ehlert, S. Grimme, J. Phys. Chem. A,
     2023, XX, XXXX-XXXX. DOI: 10.1021/acs.jpca.3c04382
   
   for DFT-D4:
   * E. Caldeweyher, C. Bannwarth and S. Grimme, J. Chem. Phys., 2017,
     147, 034112. DOI: 10.1063/1.4993215
   * E. Caldeweyher, S. Ehlert, A. Hansen, H. Neugebauer, S. Spicher,
     C. Bannwarth and S. Grimme, J. Chem. Phys., 2019, 150, 154122.
     DOI: 10.1063/1.5090222
   * E. Caldeweyher, J.-M. Mewes, S. Ehlert and S. Grimme, Phys. Chem. Chem. Phys.
     2020, 22, 8499-8512. DOI: 10.1039/D0CP00502A
   
   for sTDA-xTB:
   * S. Grimme and C. Bannwarth, J. Chem. Phys., 2016, 145, 054103.
     DOI: 10.1063/1.4959605
   
   in the mass-spec context:
   * V. Asgeirsson, C. Bauer and S. Grimme, Chem. Sci., 2017, 8, 4879.
     DOI: 10.1039/c7sc00601b
   * J. Koopman and S. Grimme, ACS Omega 2019, 4, 12, 15120-15133.
     DOI: 10.1021/acsomega.9b02011
   
   for metadynamics refer to:
   * S. Grimme, J. Chem. Theory Comput., 2019, 155, 2847-2862
     DOI: 10.1021/acs.jctc.9b00143
   
   for SPH calculations refer to:
   * S. Spicher and S. Grimme, J. Chem. Theory Comput., 2021, 17, 1701-1714
     DOI: 10.1021/acs.jctc.0c01306
   
   for ONIOM refer to:
   * C. Plett, A. Katbashev, S. Ehlert, S. Grimme, M. Bursch,
     Phys. Chem. Chem. Phys., 2023, 25, 17860-17868. DOI: 10.1039/D3CP02178E
   
   for DIPRO refer to:
   * J. Kohn, N. Gildemeister, S. Grimme, D. Fazzi, A. Hansen,
     J. Chem. Phys. 159, 144106 (2023). DOI: 10.1063/5.0167484
   
   for PTB refer to:
   * S. Grimme, M. Mueller, A. Hansen, J. Chem. Phys., 2023, 158, 124111.
     DOI: 10.1063/5.0137838
   
   with help from (in alphabetical order)
   P. Atkinson, C. Bannwarth, F. Bohle, G. Brandenburg, E. Caldeweyher,
   M. Checinski, S. Dohm, S. Ehlert, S. Ehrlich, M. Friede, T. Froitzheim,
   I. Gerasimov, C. Hölzer, A. Katbashev, J. Kohn, J. Koopman, C. Lavigne,
   S. Lehtola, F. März, M. Müller, F. Musil, H. Neugebauer, J. Pisarek,
   C. Plett, P. Pracht, F. Pultar, J. Seibert, P. Shushkov, S. Spicher,
   M. Stahn, M. Steiner, T. Strunk, J. Stückrath, T. Rose, and J. Unsleber
   
 * started run on 2026/05/23 at 12:44:38.370     
   ID    Z sym.   atoms
    1    7 N      1, 5, 10, 17, 18, 26, 33, 36, 42, 49, 54
    2    6 C      2, 3, 6-8, 11-14, 19-22, 24, 25, 27-30, 32, 34, 37, 39, 40,
                  43-45, 47, 50-52, 55
    3    8 O      4, 9, 15, 16, 23, 31, 35, 38, 41, 46, 48, 53, 56
    4    1 H      57-109

           -------------------------------------------------
          |                Calculation Setup                |
           -------------------------------------------------

          program call               : /home/xchen/software/xtb-6.7.1-gxtb/bin/xtb /home/xchen/Test/benchmark/md_sampled/08_7_0366_0/snap_0102.xyz --charge 0 --gxtb --norestart
          coordinate file            : /home/xchen/Test/benchmark/md_sampled/08_7_0366_0/snap_0102.xyz
          omp threads                :                    48

core increment energy         -2.5714958258590E+03 Eh
dispersion energy              2.8370591505886E-02 Eh
molecular charge               0.0000000000000E+00 e
number of electrons            3.1399999999720E+02 e
number of unpaired electrons   0.0000000000000E+00 e
wavefunction                   restricted
integral cutoff                2.6907767250513E+01 bohr
energy convergence             1.0000000000000E-06 Eh
density convergence            2.0000000000000E-05 e

------------------------------------------------------------
  cycle        total energy    energy error   density error
------------------------------------------------------------
      1     -2830.135534668  -2.5866808E+02   0.0000000E+00
      2     -2830.643944407  -5.0840974E-01   1.8862998E-02
      3     -2830.977763661  -3.3381925E-01   1.5095842E-02
      4     -2831.702367801  -7.2460414E-01   1.2095494E-02
      5     -2831.713987686  -1.1619884E-02   1.0523771E-03
      6     -2831.714701251  -7.1356491E-04   1.9858645E-04
      7     -2831.714765873  -6.4622701E-05   7.3586178E-05
      8     -2831.714771530  -5.6572150E-06   2.0200172E-05
      9     -2831.714772352  -8.2183334E-07   3.8473173E-06
------------------------------------------------------------

electronic energy             -2.6024731708480E+02 Eh
total energy                  -2.8317147723523E+03 Eh

Post processing:
 | Mayer-Wiberg bond orders
 | Molecular Multipole Moments

 total:                            1 min,24.566 sec
 - increment                              0.000 sec (  0%)
 - repulsion                              0.012 sec (  0%)
 - dispersion                             0.781 sec (  0%)
 - coulomb                                0.260 sec (  0%)
 - exchange                               0.029 sec (  0%)
 - hamiltonian                     1 min, 4.579 sec ( 76%)
 - acp                                    0.404 sec (  0%)
 - spin polarization                      0.000 sec (  0%)
 - post processing                        0.041 sec (  0%)
 - scc                                   17.154 sec ( 20%)
 - coulomb gradient                       0.089 sec (  0%)
 - dispersion gradient                    0.026 sec (  0%)
 - exchange gradient                      0.143 sec (  0%)
 - repulsion gradient                     0.005 sec (  0%)
 - acp gradient                           0.389 sec (  0%)
 - hamiltonian gradient                   0.585 sec (  0%)
 - gradient                               1.237 sec (  1%)

         :::::::::::::::::::::::::::::::::::::::::::::::::::::
         ::                     SUMMARY                     ::
         :::::::::::::::::::::::::::::::::::::::::::::::::::::
         :: total energy           -2831.714772352299 Eh    ::
         :: gradient norm              0.409694855241 Eh/a0 ::
         :: HOMO-LUMO gap              9.053836505136 eV    ::
         ::.................................................::
         :: add. restraining           0.000000000000 Eh    ::
         :: total charge              -0.000000000000 e     ::
         :::::::::::::::::::::::::::::::::::::::::::::::::::::

           -------------------------------------------------
          |                Property Printout                |
           -------------------------------------------------

    * Orbital Energies and Occupations
------------------------------------------------------------------
      #    Occupation            Energy/Eh            Energy/eV
------------------------------------------------------------------
      1        2.0000           -1.3587603             -36.9738
    ...           ...                  ...                  ...
    145        2.0000           -0.3715791             -10.1112
    146        2.0000           -0.3699557             -10.0670
    147        2.0000           -0.3691792             -10.0459
    148        2.0000           -0.3633188              -9.8864
    149        2.0000           -0.3626751              -9.8689
    150        2.0000           -0.3597453              -9.7892
    151        2.0000           -0.3591831              -9.7739
    152        2.0000           -0.3538863              -9.6297
    153        2.0000           -0.3514763              -9.5642
    154        2.0000           -0.3497997              -9.5185
    155        2.0000           -0.3468650              -9.4387
    156        2.0000           -0.3451668              -9.3925
    157        2.0000           -0.3326306              -9.0513 (HOMO)
    158                          0.0000918               0.0025 (LUMO)
    159                          0.0152529               0.4151
    160                          0.0201973               0.5496
    161                          0.0245046               0.6668
    162                          0.0362790               0.9872
    163                          0.0390767               1.0633
    164                          0.0414592               1.1282
    165                          0.0428901               1.1671
    166                          0.0468235               1.2741
    167                          0.0562985               1.5320
    168                          0.0676179               1.8400
    ...                                ...                  ...
    277                          0.8112251              22.0746
------------------------------------------------------------------
               HL-Gap            0.3327224 Eh            9.0538 eV
------------------------------------------------------------------

Atomic charges and shell populations (in atomic units):
------------------------------------------------------
     #    Z                q          p(s)       p(p)
------------------------------------------------------
     1    7 N      -0.374269      1.412133   3.962135
     2    6 C      -0.005160      1.122568   2.882591
     3    6 C       0.404278      1.137917   2.457805
     4    8 O      -0.546025      1.858366   4.687659
     5    7 N      -0.371547      1.417789   3.953757
     6    6 C      -0.024058      1.147696   2.876362
     7    6 C       0.428206      1.125068   2.446725
     8    6 C      -0.004271      1.099422   2.904849
     9    8 O      -0.449733      1.854243   4.595490
    10    7 N      -0.363353      1.352734   4.010618
    11    6 C      -0.195822      1.158233   3.037589
    12    6 C       0.438803      1.097656   2.463541
    13    6 C       0.404556      1.085864   2.509579
    14    6 C      -0.002825      1.118841   2.883984
    15    8 O      -0.484283      1.844007   4.640276
    16    8 O      -0.515804      1.853964   4.661840
    17    7 N      -0.406926      1.358645   4.048281
    18    7 N      -0.329404      1.346315   3.983090
    19    6 C      -0.190223      1.154799   3.035424
    20    6 C       0.416117      1.105232   2.478651
    21    6 C      -0.125308      1.126357   2.998951
    22    6 C      -0.010334      1.122039   2.888295
    23    8 O      -0.536605      1.854487   4.682118
    24    6 C      -0.244851      1.179605   3.065246
    25    6 C      -0.257506      1.165788   3.091718
    26    7 N      -0.362231      1.367235   3.994996
    27    6 C      -0.160132      1.153694   3.006438
    28    6 C       0.433315      1.118578   2.448107
    29    6 C      -0.187122      1.142282   3.044840
    30    6 C       0.001980      1.126699   2.871321
    31    8 O      -0.513190      1.848885   4.664305
    32    6 C       0.417797      1.099323   2.482880
    33    7 N      -0.352002      1.354587   3.997415
    34    6 C       0.100583      1.100897   2.798520
    35    8 O      -0.556208      1.847472   4.708736
    36    7 N      -0.415812      1.374661   4.041151
    37    6 C       0.453383      1.087219   2.459399
    38    8 O      -0.612990      1.802980   4.810010
    39    6 C      -0.253853      1.170908   3.082945
    40    6 C      -0.002634      1.108897   2.893737
    41    8 O      -0.511293      1.841117   4.670175
    42    7 N      -0.292630      1.327936   3.964694
    43    6 C      -0.186231      1.145842   3.040389
    44    6 C       0.407755      1.095704   2.496541
    45    6 C      -0.210328      1.137615   3.072713
    46    8 O      -0.569910      1.861754   4.708156
    47    6 C       0.413879      1.131908   2.454212
    48    8 O      -0.521808      1.863776   4.658031
    49    7 N      -0.442598      1.427544   4.015054
    50    6 C      -0.174922      1.132676   3.042246
    51    6 C      -0.188119      1.156330   3.031789
    52    6 C       0.381459      1.115426   2.503115
    53    8 O      -0.502031      1.851113   4.650918
    54    7 N      -0.446662      1.377252   4.069410
    55    6 C       0.066101      1.109386   2.824513
    56    8 O      -0.518318      1.786177   4.732141
    57    1 H       0.256262      0.743738
    58    1 H       0.153184      0.846816
    59    1 H       0.262073      0.737927
    60    1 H       0.177727      0.822273
    61    1 H       0.120002      0.879998
    62    1 H       0.255130      0.744870
    63    1 H       0.131470      0.868530
    64    1 H       0.108157      0.891843
    65    1 H       0.128283      0.871717
    66    1 H       0.250085      0.749915
    67    1 H       0.267924      0.732076
    68    1 H       0.303819      0.696181
    69    1 H       0.124200      0.875800
    70    1 H       0.080184      0.919816
    71    1 H       0.097358      0.902642
    72    1 H       0.160253      0.839747
    73    1 H       0.084278      0.915722
    74    1 H       0.083940      0.916060
    75    1 H       0.089430      0.910570
    76    1 H       0.085818      0.914182
    77    1 H       0.090314      0.909686
    78    1 H       0.098132      0.901868
    79    1 H       0.256529      0.743471
    80    1 H       0.107564      0.892436
    81    1 H       0.110691      0.889309
    82    1 H       0.106177      0.893823
    83    1 H       0.125255      0.874745
    84    1 H       0.152611      0.847389
    85    1 H       0.263941      0.736059
    86    1 H       0.115427      0.884573
    87    1 H       0.261302      0.738698
    88    1 H       0.243166      0.756834
    89    1 H       0.378515      0.621485
    90    1 H       0.090397      0.909603
    91    1 H       0.094159      0.905841
    92    1 H       0.094218      0.905782
    93    1 H       0.100942      0.899058
    94    1 H       0.266559      0.733441
    95    1 H       0.125534      0.874466
    96    1 H       0.101241      0.898759
    97    1 H       0.115480      0.884520
    98    1 H       0.150696      0.849304
    99    1 H       0.243536      0.756464
   100    1 H       0.234472      0.765528
   101    1 H       0.123603      0.876397
   102    1 H       0.132321      0.867679
   103    1 H       0.113766      0.886234
   104    1 H       0.092634      0.907366
   105    1 H       0.246092      0.753908
   106    1 H       0.264372      0.735628
   107    1 H       0.092324      0.907676
   108    1 H       0.077992      0.922008
   109    1 H       0.361578      0.638422
------------------------------------------------------


Wiberg/Mayer (AO) data.
largest (>0.10) Wiberg bond orders for each atom

 ---------------------------------------------------------------------------
     #   Z sym  total        # sym  WBO       # sym  WBO       # sym  WBO
 ---------------------------------------------------------------------------
     1   7 N    3.216 --     7 C    1.054     2 C    0.999    57 O    0.886
                             9 C    0.152
     2   6 C    3.931 --     1 N    0.999    50 C    0.989    58 O    0.918
                             3 C    0.889
     3   6 C    3.828 --     4 C    1.663     5 N    1.184     2 C    0.889
     4   8 C    1.949 --     3 C    1.663     5 N    0.135
     5   7 N    3.254 --     3 C    1.184     6 C    0.938    59 O    0.895
                             4 C    0.135
     6   6 C    3.899 --    44 C    0.961    55 C    0.947     5 N    0.938
                            60 O    0.906
     7   6 C    3.850 --     9 C    1.798     1 N    1.054     8 C    0.915
     8   6 C    3.946 --    10 N    0.991    11 C    0.980    61 O    0.931
                             7 C    0.915
     9   8 C    2.061 --     7 C    1.798     1 N    0.152
    10   7 N    3.299 --    12 C    1.157     8 C    0.991    62 O    0.893
                            15 C    0.158
    11   6 C    3.955 --     8 C    0.980    64 O    0.952    63 O    0.952
                            13 C    0.947
    12   6 C    3.856 --    15 C    1.726    10 N    1.157    14 C    0.892
    13   6 C    3.893 --    16 C    1.668    17 N    1.254    11 C    0.947
    14   6 C    3.943 --    18 N    1.006    19 C    0.969    65 O    0.926
                            12 C    0.892
    15   8 C    2.034 --    12 C    1.726    10 N    0.158
    16   8 C    1.949 --    13 C    1.668    17 N    0.178
    17   7 N    3.282 --    13 C    1.254    66 O    0.914    67 O    0.903
                            16 C    0.178
    18   7 N    3.327 --    20 C    1.197    14 C    1.006    68 O    0.857
                            23 C    0.165
    19   6 C    3.959 --    21 C    1.002    14 C    0.969    70 O    0.949
                            69 O    0.944
    20   6 C    3.869 --    23 C    1.669    18 N    1.197    22 C    0.929
    21   6 C    3.977 --    25 C    1.008    19 C    1.002    24 C    0.992
                            71 O    0.949
    22   6 C    3.933 --    27 C    0.985    26 N    0.973    20 C    0.929
                            72 O    0.910
    23   8 C    1.958 --    20 C    1.669    18 N    0.165
    24   6 C    3.957 --    21 C    0.992    75 O    0.976    74 O    0.976
                            73 O    0.971
    25   6 C    3.958 --    21 C    1.008    77 O    0.977    76 O    0.972
                            78 O    0.962
    26   7 N    3.294 --    28 C    1.175    22 C    0.973    79 O    0.882
                            31 C    0.154
    27   6 C    3.953 --    22 C    0.985    29 C    0.979    80 O    0.955
                            81 O    0.955
    28   6 C    3.846 --    31 C    1.715    26 N    1.175    30 C    0.874
    29   6 C    3.963 --    27 C    0.979    32 C    0.971    82 O    0.960
                            83 O    0.953
    30   6 C    3.926 --    34 C    0.991    33 N    0.971    84 O    0.932
                            28 C    0.874
    31   8 C    1.999 --    28 C    1.715    26 N    0.154
    32   6 C    3.865 --    35 C    1.626    36 N    1.234    29 C    0.971
    33   7 N    3.302 --    37 C    1.180    30 C    0.971    85 O    0.888
                            41 C    0.156
    34   6 C    3.901 --    39 C    0.995    30 C    0.991    86 O    0.937
                            38 C    0.930
    35   8 C    1.940 --    32 C    1.626    36 N    0.162
    36   7 N    3.261 --    32 C    1.234    88 O    0.918    87 O    0.907
                            35 C    0.162
    37   6 C    3.866 --    41 C    1.717    33 N    1.180    40 C    0.887
    38   8 C    1.853 --    34 C    0.930    89 O    0.799
    39   6 C    3.958 --    34 C    0.995    90 O    0.973    91 O    0.973
                            92 O    0.971
    40   6 C    3.946 --    42 N    1.000    43 C    0.990    93 O    0.928
                            37 C    0.887
    41   8 C    2.005 --    37 C    1.717    33 N    0.156
    42   7 N    3.381 --    44 C    1.256    40 C    1.000    94 O    0.879
                            46 C    0.154
    43   6 C    3.961 --    40 C    0.990    45 C    0.982    96 O    0.960
                            95 O    0.951
    44   6 C    3.879 --    46 C    1.571    42 N    1.256     6 C    0.961
    45   6 C    3.958 --    43 C    0.982    47 C    0.967    97 O    0.960
                            98 O    0.939
    46   8 C    1.876 --    44 C    1.571    42 N    0.154
    47   6 C    3.848 --    48 C    1.692    49 N    1.145    45 C    0.967
    48   8 C    1.953 --    47 C    1.692    49 N    0.147
    49   7 N    3.180 --    47 C    1.145   100 O    0.922    99 O    0.921
                            48 C    0.147
    50   6 C    3.957 --    51 C    1.014     2 C    0.989   101 O    0.950
                           102 O    0.944
    51   6 C    3.962 --    50 C    1.014   104 O    0.945   103 O    0.944
                            52 C    0.936
    52   6 C    3.869 --    53 C    1.703    54 N    1.183    51 C    0.936
    53   8 C    1.984 --    52 C    1.703    54 N    0.154
    54   7 N    3.197 --    52 C    1.183   105 O    0.916   106 O    0.906
                            53 C    0.154
    55   6 C    3.900 --    56 C    1.012     6 C    0.947   107 O    0.945
                           108 O    0.941
    56   8 C    1.948 --    55 C    1.012   109 O    0.841
    57   1 O    0.934 --     1 N    0.886
    58   1 O    0.977 --     2 C    0.918
    59   1 O    0.931 --     5 N    0.895
    60   1 O    0.968 --     6 C    0.906
    61   1 O    0.986 --     8 C    0.931
    62   1 O    0.935 --    10 N    0.893
    63   1 O    0.983 --    11 C    0.952
    64   1 O    0.988 --    11 C    0.952
    65   1 O    0.984 --    14 C    0.926
    66   1 O    0.937 --    17 N    0.914
    67   1 O    0.928 --    17 N    0.903
    68   1 O    0.908 --    18 N    0.857
    69   1 O    0.985 --    19 C    0.944
    70   1 O    0.994 --    19 C    0.949
    71   1 O    0.991 --    21 C    0.949
    72   1 O    0.974 --    22 C    0.910
    73   1 O    0.993 --    24 C    0.971
    74   1 O    0.993 --    24 C    0.976
    75   1 O    0.992 --    24 C    0.976
    76   1 O    0.993 --    25 C    0.972
    77   1 O    0.992 --    25 C    0.977
    78   1 O    0.990 --    25 C    0.962
    79   1 O    0.934 --    26 N    0.882
    80   1 O    0.988 --    27 C    0.955
    81   1 O    0.988 --    27 C    0.955
    82   1 O    0.989 --    29 C    0.960
    83   1 O    0.984 --    29 C    0.953
    84   1 O    0.977 --    30 C    0.932
    85   1 O    0.930 --    33 N    0.888
    86   1 O    0.987 --    34 C    0.937
    87   1 O    0.932 --    36 N    0.907
    88   1 O    0.941 --    36 N    0.918
    89   1 O    0.857 --    38 C    0.799
    90   1 O    0.992 --    39 C    0.973
    91   1 O    0.991 --    39 C    0.973
    92   1 O    0.991 --    39 C    0.971
    93   1 O    0.990 --    40 C    0.928
    94   1 O    0.929 --    42 N    0.879
    95   1 O    0.984 --    43 C    0.951
    96   1 O    0.990 --    43 C    0.960
    97   1 O    0.987 --    45 C    0.960
    98   1 O    0.977 --    45 C    0.939
    99   1 O    0.941 --    49 N    0.921
   100   1 O    0.945 --    49 N    0.922
   101   1 O    0.985 --    50 C    0.950
   102   1 O    0.982 --    50 C    0.944
   103   1 O    0.987 --    51 C    0.944
   104   1 O    0.991 --    51 C    0.945
   105   1 O    0.939 --    54 N    0.916
   106   1 O    0.930 --    54 N    0.906
   107   1 O    0.991 --    55 C    0.945
   108   1 O    0.994 --    55 C    0.941
   109   1 O    0.869 --    56 C    0.841
 ---------------------------------------------------------------------------

Topologies differ in total number of bonds
Writing topology from bond orders to xtbtopo.mol

Atomic dipole moments (in atomic units):
---------------------------------------------------------
     #    Z                 x            y            z
---------------------------------------------------------
           total     0.004338    -3.372448     3.038720
---------------------------------------------------------
         |total|     4.539520    11.538309 Debye


           -------------------------------------------------
          | TOTAL ENERGY            -2831.714772352299 Eh   |
          | GRADIENT NORM               0.409694855241 Eh/α |
           -------------------------------------------------

------------------------------------------------------------------------
 * finished run on 2026/05/23 at 12:46:03.879     
------------------------------------------------------------------------
 total:
 * wall-time:     0 d,  0 h,  1 min, 25.508 sec
 *  cpu-time:     0 d,  0 h,  2 min, 25.247 sec
 * ratio c/w:     1.699 speedup
 SCF:
 * wall-time:     0 d,  0 h,  1 min, 24.917 sec
 *  cpu-time:     0 d,  0 h,  2 min, 24.631 sec
 * ratio c/w:     1.703 speedup

normal termination of xtb
