82
pH=6.13 total_charge=0 partial_charge_sum=+0.000000 method=gasteiger energy=-408.85963000
N  -0.90403338 -1.74864813 -0.19976085
C   0.18323455 -2.69020471 -0.01303098
C   1.47397095 -2.01145273  0.19793381
O   1.98678292 -1.33566367 -0.72403236
N   1.99462206 -2.11166038  1.45420891
C   3.40812934 -1.54570334  1.72197481
C  -2.20883035 -2.05900051  0.00366993
C  -3.26868400 -0.91267192 -0.17336239
O  -2.55249596 -3.22459434  0.23617015
N  -2.71727972  0.41591275 -0.11584280
C  -3.96127486 -1.12237827 -1.63743016
C  -2.28526389  0.82929102  1.12429250
C  -5.17632209 -0.29777472 -2.03135565
C  -1.75017176  2.30239385  1.38094199
O  -2.10379440 -0.02388623  2.01021634
C  -6.10046159 -0.14378415 -0.78952140
N  -0.29814217  2.33182791  1.50331027
C  -2.10394053  3.29630369  0.23540743
C  -6.73611530 -1.54000763 -0.48508496
C   0.63157911  1.78666736  0.69790390
C  -1.79433860  4.73089163  0.72785400
N  -8.19342600 -1.58005478 -0.20400176
C   2.03304656  1.81305361  1.27203738
O   0.31899782  1.45429899 -0.46774101
O  -0.64808099  5.13840892  1.03519076
N  -2.82024894  5.63757045  0.87480067
N   2.78241437  0.64811263  1.01117019
C   2.64752640  3.01360987  0.65793479
C   3.24940322 -0.03492589  2.07369501
C   4.03416599  3.55704829  1.10980347
O   3.37777585  0.43383635  3.20664222
O   4.20153238  4.05791164  2.15827141
N   5.01450150  3.45987533  0.12860238
C   0.31153025 -3.77700039 -1.05599611
C   0.93936500 -4.96844400 -0.56342931
C   0.81041462 -3.40361784 -2.47165898
C   4.37409545 -2.02201069  0.61928698
C   5.72518796 -1.35590084  0.89315479
C   6.68743600 -1.45747629 -0.25131312
O   7.85435936 -1.86611351 -0.07792332
N   6.16389566 -1.51534949 -1.53224481
H  -0.60758196 -0.79840097 -0.39529919
H  -0.16970581 -3.21813019  0.91112944
H   1.39588994 -2.65975970  2.15343859
H   3.67292117 -2.01843922  2.66733697
H  -4.05064250 -1.03009363  0.64478612
H  -3.02142802  1.08790653 -0.80941588
H  -3.21884947 -1.23111752 -2.43293157
H  -4.31441010 -2.14178338 -1.55765459
H  -5.70099270 -0.94020898 -2.84135801
H  -4.91034792  0.62160531 -2.59677378
H  -2.27812166  2.50569732  2.27333676
H  -6.88579255  0.59445331 -0.93343567
H  -5.56548753  0.10423433  0.09838491
H   0.03926796  2.74355364  2.32472583
H  -1.67887067  2.99367622 -0.69380520
H  -3.20764086  3.21322282  0.15938644
H  -6.40935670 -2.37647690 -1.19841756
H  -6.35689621 -2.00393847  0.42982304
H  -8.57759952 -0.67192047  0.15504589
H  -8.77963534 -1.84203719 -0.98690469
H   1.98351880  1.95804639  2.34797930
H  -2.45204620  6.48134017  1.31307505
H  -3.88545825  5.61881281  0.78082774
H   2.53289350  0.09254112  0.21396489
H   2.63707147  2.88768182 -0.34848313
H   2.07487283  3.89154314  0.82262545
H   4.85092955  2.74108901 -0.48422912
H   5.92334260  3.63093333  0.49114840
H  -0.75666783 -4.07054920 -1.22721258
H   1.74673491 -4.81727419  0.11539719
H   0.33703609 -5.56667479  0.08025122
H   1.22909336 -5.64851288 -1.37822090
H   0.27631995 -2.65970010 -2.89297582
H   1.93594219 -3.30527814 -2.69107621
H   0.47949456 -4.18244221 -3.16662431
H   4.32695988 -3.15731364  0.66692383
H   3.95340061 -1.88962847 -0.39451031
H   5.65118484 -0.31205870  1.18872542
H   6.28226924 -1.89828390  1.66545648
H   6.81732391 -1.67421324 -2.27429236
H   5.26620218 -1.25127389 -1.85316373
