82
pH=6.13 total_charge=0 partial_charge_sum=+0.000000 method=gasteiger energy=-409.31275500
N  -0.96031647 -1.80881050 -0.47228409
C   0.04212714 -2.83913395 -0.26658408
C   1.34567137 -2.02015165 -0.00317791
O   1.72859480 -1.23955274 -0.87443052
N   2.10568673 -2.34774016  1.05009907
C   3.33257626 -1.62425378  1.41207668
C  -2.27663467 -1.91240158 -0.03135344
C  -3.24833871 -0.75925704 -0.34329390
O  -2.69178069 -2.95058999  0.49797606
N  -2.73286430  0.62722109 -0.10945063
C  -3.68511696 -0.80684455 -1.79502511
C  -2.38486164  0.96092891  1.18776517
C  -4.72051292  0.22576456 -2.02592733
C  -1.74343736  2.42394903  1.27185135
O  -2.70364956  0.34811245  2.19502656
C  -5.99760092  0.09427991 -1.23909255
N  -0.33260359  2.39697508  1.76002459
C  -2.06925961  3.47577025  0.24974701
C  -6.81984768 -1.19637007 -1.49027548
C   0.58317022  1.80838287  0.94412263
C  -1.63873944  4.91229455  0.76988706
N  -7.94133187 -1.29092443 -0.65074369
C   2.04000228  1.90464019  1.49042641
O   0.37968047  1.35080188 -0.18908086
O  -0.52485565  5.37479209  0.54066724
N  -2.60795599  5.48736048  1.52925696
N   2.78290416  0.67490884  1.05007987
C   2.57591278  3.13480493  0.90738560
C   2.74784555 -0.37928482  2.01003696
C   3.98763285  3.53548095  1.34888082
O   2.31249975 -0.20715768  3.15138018
O   4.23335038  4.05484300  2.46365379
N   4.91058886  3.12469054  0.41804724
C   0.14451683 -3.82977122 -1.45731168
C   0.96336001 -4.98508050 -0.92955365
C   0.48220919 -3.33269561 -2.85613135
C   4.50240688 -1.51768709  0.46313039
C   5.72473674 -0.90659236  1.21408752
C   7.04312046 -1.00847403  0.31254444
O   8.04650418 -1.65505174  0.60499312
N   6.92968919 -0.29342757 -0.86764455
H  -0.46979011 -0.95269021 -0.70309180
H  -0.18372360 -3.24580601  0.65993979
H   1.78388622 -2.79715530  1.85528669
H   3.75756897 -2.15585700  2.20957877
H  -3.97207003 -0.96326996  0.45088051
H  -2.16942536  1.13168800 -0.79452515
H  -2.73695797 -0.64754521 -2.41099250
H  -4.01434771 -1.89210364 -1.93142190
H  -4.96505186  0.22686319 -3.12111788
H  -4.31131521  1.18293325 -1.85409335
H  -2.26633257  2.75575535  2.14083699
H  -6.68040830  1.00064754 -1.31036206
H  -5.73662493 -0.03395935 -0.13208284
H  -0.12951787  2.46386516  2.72197142
H  -1.67696119  3.17306589 -0.74266756
H  -3.12054115  3.49785902  0.25665640
H  -7.12541784 -1.31330606 -2.57727503
H  -6.18819395 -2.11417956 -1.39286963
H  -8.84408503 -1.37323562 -0.96404090
H  -7.88454309 -1.98627974  0.06450050
H   2.00311586  2.01271659  2.56811217
H  -2.32101894  6.19447155  2.21869976
H  -3.48150360  5.00951982  1.78552331
H   2.28272287  0.44343239  0.20943448
H   2.72603040  2.85768650 -0.14836267
H   1.84221055  3.95382783  0.96442239
H   4.55498877  2.38734757 -0.23997364
H   5.85985859  3.07035995  0.90085864
H  -0.89957710 -4.18751042 -1.47668460
H   1.98200439 -4.64406638 -0.54523469
H   0.53183464 -5.52926981 -0.03683172
H   1.32669031 -5.76473755 -1.68695014
H   0.15743780 -2.29951263 -3.12021101
H   1.52422163 -3.51489822 -3.04050265
H  -0.06724165 -4.07856725 -3.49063636
H   4.75078575 -2.59302668  0.30472524
H   4.17768848 -1.04490598 -0.46379691
H   5.60542775  0.17074879  1.36309099
H   5.74609253 -1.27735976  2.26898016
H   7.44224676 -0.66267200 -1.68249299
H   5.94229064 -0.24202831 -1.16734310
