82
pH=6.13 total_charge=0 partial_charge_sum=+0.000000 method=gasteiger energy=-408.61744250
N  -0.98878434 -1.82597733 -0.51718367
C   0.07852160 -2.85387785 -0.24744162
C   1.31544163 -2.03144318 -0.02829388
O   1.71858915 -1.27899961 -0.85818047
N   2.17563009 -2.33251955  1.04846092
C   3.32067580 -1.59498814  1.44248970
C  -2.30515245 -1.93232678 -0.02635955
C  -3.24296997 -0.75740369 -0.37028008
O  -2.65586430 -2.91313830  0.49816627
N  -2.71397648  0.61756983 -0.12973744
C  -3.67415077 -0.82981226 -1.77758689
C  -2.41108727  0.95994306  1.22625658
C  -4.73284349  0.25902668 -2.05589351
C  -1.75713257  2.41182928  1.30334871
O  -2.71449571  0.34456714  2.22194502
C  -6.00269168  0.11460740 -1.25369802
N  -0.35681537  2.41162853  1.78869672
C  -2.08908148  3.49175353  0.21439589
C  -6.80699464 -1.18846451 -1.50583967
C   0.59127594  1.81870734  0.94483456
C  -1.62787682  4.90107001  0.77079318
N  -7.98640606 -1.23430389 -0.62806014
C   2.02553728  1.88959281  1.51310073
O   0.36953960  1.37635335 -0.17222100
O  -0.58726895  5.37896135  0.53529232
N  -2.63588802  5.52396593  1.52592238
N   2.80988937  0.71578472  1.06895032
C   2.56301883  3.11386545  0.84245873
C   2.77837569 -0.39502427  2.04754155
C   3.98804424  3.56042763  1.35838572
O   2.33337597 -0.18750388  3.12468373
O   4.25796023  4.02472896  2.39465211
N   4.90290513  3.12984140  0.44205277
C   0.15384172 -3.83734466 -1.46409324
C   0.98757473 -4.96677374 -0.92052462
C   0.47571466 -3.37203915 -2.85916191
C   4.51202994 -1.51220425  0.49584761
C   5.72282920 -0.85722665  1.19758359
C   7.06833460 -1.03433021  0.34902881
O   8.03977183 -1.66211117  0.59083690
N   6.90674859 -0.28528883 -0.87404252
H  -0.43052829 -0.95936264 -0.54516133
H  -0.29387556 -3.30825638  0.74171443
H   1.78895893 -2.76440683  1.91267580
H   3.81178547 -2.17764661  2.27994992
H  -3.99738258 -0.87841966  0.40606131
H  -2.26426051  1.03002635 -0.94819968
H  -2.80569919 -0.70493722 -2.39534071
H  -4.02781327 -1.79755586 -2.03793368
H  -4.84558458  0.15317751 -3.13310772
H  -4.18958496  1.23965275 -1.86741287
H  -2.26472180  2.75940631  2.23082124
H  -6.61018160  0.95416099 -1.45869583
H  -5.73009949  0.11842577 -0.22663173
H  -0.23457429  2.57404491  2.81651669
H  -1.66760062  3.31454693 -0.75188725
H  -3.22306780  3.52427500  0.30318477
H  -7.20316862 -1.11288949 -2.48346775
H  -6.17416770 -2.00850600 -1.14870008
H  -8.92516531 -1.32997285 -1.08784316
H  -7.79246893 -1.76856869  0.22769019
H   2.05114437  2.03147027  2.60890236
H  -2.29051235  6.21963693  2.14505944
H  -3.45425334  5.05027238  1.82815659
H   2.29149731  0.39921808  0.20333422
H   2.76930693  2.82059554 -0.17327009
H   1.90058091  3.95182941  0.97693288
H   4.75863111  2.44528439 -0.22177140
H   5.78010922  2.99117623  0.84870292
H  -0.86051740 -4.22974178 -1.47607646
H   1.94242014 -4.62689256 -0.61638255
H   0.45739232 -5.52158825 -0.15819458
H   1.28558522 -5.77728788 -1.54027182
H   0.13760148 -2.37115921 -3.00188052
H   1.54086344 -3.34308024 -3.14368012
H   0.04251586 -4.08764072 -3.50469458
H   4.81413399 -2.52687056  0.21912001
H   4.27979929 -1.04458813 -0.46502300
H   5.59609777  0.23637902  1.20847848
H   5.80438286 -1.23701199  2.20913179
H   7.46464940 -0.49605046 -1.67238249
H   5.96394673 -0.14684371 -1.18625571
