82
pH=6.13 total_charge=0 partial_charge_sum=+0.000000 method=gasteiger energy=-409.40259875
N  -0.87176027 -1.69294714  0.02247457
C   0.12105819 -2.77279186 -0.01371039
C   1.43022473 -2.11403760  0.05993204
O   1.87032186 -1.28744493 -0.72717780
N   2.20348059 -2.38767246  1.22636042
C   3.39731351 -1.70977780  1.67797496
C  -2.15988530 -2.03164128 -0.00142201
C  -3.15782238 -0.84833614 -0.28293600
O  -2.54585876 -3.13573841  0.27098659
N  -2.64501499  0.46515340 -0.08612435
C  -3.66589912 -0.97405807 -1.74480746
C  -2.29584187  0.87796185  1.18508357
C  -4.80346085 -0.07043193 -2.02013662
C  -1.67182153  2.28301134  1.33922545
O  -2.37223612  0.24984165  2.20742212
C  -6.18318920 -0.17579380 -1.16539678
N  -0.29935575  2.23447909  1.78012154
C  -1.94212330  3.30169223  0.19315234
C  -6.80365684 -1.64220839 -1.21572044
C   0.55482328  1.67858388  0.89880116
C  -1.79666153  4.66754638  0.65002600
N  -8.05586138 -1.88750644 -0.59554307
C   1.99748356  1.83060360  1.35157387
O   0.17943838  1.19195312 -0.13673826
O  -0.77169699  5.30337842  0.78045823
N  -2.93443199  5.18313707  1.18243116
N   2.68757691  0.54741822  1.03563135
C   2.63818889  2.98297920  0.48949679
C   3.00518208 -0.25011854  2.15043070
C   3.93637219  3.44388985  1.18194386
O   3.10912402  0.18318230  3.27874982
O   3.85786554  3.93268965  2.28126053
N   5.09021031  3.18442683  0.36575011
C   0.12686672 -3.74048778 -1.27166014
C   1.06645779 -4.95134316 -0.98620194
C   0.34241545 -2.99402356 -2.61522985
C   4.45659898 -1.79045335  0.59286801
C   5.75532118 -1.17382502  0.97040309
C   6.90747742 -1.20651534  0.03494525
O   8.04427200 -1.24327929  0.37947708
N   6.60643953 -1.07488189 -1.33198067
H  -0.44024590 -0.79206549 -0.22441448
H  -0.00787139 -3.39438427  0.83776757
H   1.79414722 -2.93937262  1.92181167
H   3.59297789 -2.23218193  2.60951503
H  -3.93920836 -0.89080981  0.39757848
H  -1.92222192  0.76487354 -0.67900871
H  -2.69950962 -0.84528799 -2.27676710
H  -3.89069085 -1.98767914 -1.89669639
H  -5.08231563  0.04791803 -3.13456378
H  -4.36744951  0.92510801 -1.63595421
H  -2.30909115  2.63715943  2.18680721
H  -6.85077054  0.68368336 -1.44931567
H  -5.95306181  0.05695025 -0.15759486
H  -0.15593893  2.40129765  2.78838846
H  -1.27772935  3.11609933 -0.79041962
H  -3.00071062  3.35868412 -0.25719081
H  -6.87713591 -1.92273634 -2.22587304
H  -6.05549845 -2.37057642 -0.75793057
H  -8.07788262 -1.82933676  0.39807688
H  -8.70095841 -1.17367339 -0.91226204
H   1.88832372  2.05066130  2.36924379
H  -2.93182398  6.01024002  1.69970873
H  -3.65014654  4.54002507  1.41111407
H   2.45221907  0.07986552  0.15561865
H   2.65483278  2.60765940 -0.56145167
H   1.95991817  3.79069279  0.42653382
H   4.86612068  3.26128826 -0.61237915
H   6.04042587  3.43101851  0.76757535
H  -0.86648346 -4.15434320 -1.19667639
H   2.13791276 -4.71801555 -0.61839562
H   0.50822721 -5.44416011 -0.23243194
H   1.13881145 -5.53964759 -1.90242627
H  -0.11393815 -2.03328145 -2.76614336
H   1.39791888 -2.87520331 -2.78380733
H  -0.01702562 -3.77730874 -3.41258779
H   4.47876576 -2.85846354  0.27436116
H   4.09443699 -1.09877002 -0.18947662
H   5.54811836 -0.11461431  1.14298619
H   6.19291080 -1.61381128  1.87056038
H   7.38440409 -1.14383539 -2.01815628
H   5.67429190 -1.09257145 -1.61156759
