82
pH=6.13 total_charge=0 partial_charge_sum=+0.000000 method=gasteiger energy=-410.63306750
N  -0.91979957 -1.77728240 -0.57674635 -0.34227279
C   0.10475794 -2.77586935 -0.25123797  0.11001838
C   1.44130826 -2.09882157 -0.05503321  0.24299400
O   1.82887376 -1.22922881 -0.88068822 -0.27269266
N   2.26737741 -2.45483567  1.06645367 -0.34249682
C   3.34967008 -1.61735242  1.59540689  0.10823029
C  -2.26379227 -1.85492145 -0.07808907  0.24273542
C  -3.24504754 -0.75003152 -0.36159713  0.10773727
O  -2.64126054 -2.86220492  0.58018810 -0.27270449
N  -2.61381156  0.55037176 -0.11117469 -0.34250810
C  -3.74713115 -0.85648159 -1.81686548 -0.02362617
C  -2.45142571  1.07120713  1.21981092  0.24326536
C  -4.75323874  0.24183121 -2.21974593 -0.04963444
C  -1.90451623  2.45744261  1.48023479  0.11647594
O  -2.75026325  0.35062243  2.21089435 -0.27268723
C  -6.02497811  0.31329851 -1.35574520 -0.04080171
N  -0.48892768  2.39568066  1.86524348 -0.34199003
C  -2.13168134  3.44977345  0.32112899  0.05564542
C  -6.84113397 -0.98442822 -1.38165218 -0.00772601
C   0.56601074  1.91920977  1.01286575  0.24327838
C  -1.81240299  4.85322062  0.74584480  0.21952925
N  -8.11955340 -0.78487172 -0.70664261 -0.33047349
C   2.00330513  2.07083750  1.43503840  0.11647592
O   0.30051567  1.41528981 -0.11166412 -0.27268703
O  -0.67308902  5.33633058  0.50895612 -0.27526757
N  -2.77735466  5.63057301  1.45427076 -0.36959816
N   2.74622293  0.84757439  1.11203325 -0.34200323
C   2.62607680  3.28868491  0.73349754  0.05564542
C   2.80699576 -0.26824527  2.01746300  0.24275529
C   4.03826778  3.51323705  1.18965708  0.21952925
O   2.34185758 -0.15083214  3.18389468 -0.27270420
O   4.25646092  4.08737868  2.28970795 -0.27526757
N   5.13574975  3.04692803  0.40522574 -0.36959816
C   0.13814317 -3.89538758 -1.32567745 -0.01760765
C   1.07801976 -5.03900916 -0.91705942 -0.06029356
C   0.50069722 -3.38211564 -2.72875771 -0.06029356
C   4.54865861 -1.57242374  0.62315110 -0.01488792
C   5.74831308 -0.81955691  1.21526318  0.02871204
C   6.93468292 -0.91930434  0.30426235  0.21700785
O   7.86115628 -1.73136907  0.56798066 -0.27537243
N   7.00549139 -0.12581444 -0.87997192 -0.36967862
H  -0.68698758 -1.01057460 -1.24774895  0.16389181
H  -0.16671981 -3.24858243  0.71877175  0.06349335
H   2.00789032 -3.30483205  1.61671218  0.16388103
H   3.72485456 -2.11257996  2.52021803  0.06322944
H  -4.11437278 -0.87256934  0.32026673  0.06321414
H  -2.21313912  1.07260085 -0.92077981  0.16388081
H  -2.87861095 -0.79230485 -2.50891306  0.02929700
H  -4.20688915 -1.85517258 -1.97904329  0.02929700
H  -5.05007210  0.07243769 -3.27775634  0.02679166
H  -4.25037879  1.23198445 -2.18739384  0.02679166
H  -2.47686054  2.85178981  2.35108665  0.06376306
H  -6.65857016  1.13677863 -1.75210294  0.02794783
H  -5.76703527  0.58146683 -0.30941752  0.02794783
H  -0.23402210  2.75419333  2.81326936  0.16389755
H  -1.50391631  3.19277896 -0.55719555  0.03937510
H  -3.19483726  3.40749524 -0.00183957  0.03937510
H  -7.03063341 -1.28129178 -2.43658959  0.04254920
H  -6.28117581 -1.80221851 -0.87694639  0.04254920
H  -8.67279061 -1.66674030 -0.80575671  0.11837913
H  -7.93382030 -0.66439012  0.31589568  0.11837913
H   2.04535577  2.25352452  2.53183431  0.06376306
H  -2.54869554  6.60175236  1.76195194  0.15910138
H  -3.71841553  5.23672661  1.67686908  0.15910138
H   3.12370791  0.74738572  0.14468701  0.16389733
H   2.60358358  3.14969964 -0.36975034  0.03937510
H   2.02852332  4.19717302  0.96743139  0.03937510
H   4.97208466  2.57104174 -0.50917543  0.15910138
H   6.11618268  3.17562391  0.74024339  0.15910138
H  -0.88698149 -4.32431336 -1.38779309  0.03234949
H   2.13319289 -4.69282985 -0.88554927  0.02339914
H   0.79724691 -5.42894475  0.08445825  0.02339914
H   1.00145851 -5.87456386 -1.64519158  0.02339914
H  -0.18845282 -2.57012717 -3.04086032  0.02339914
H   1.54520977 -3.00777798 -2.76083026  0.02339914
H   0.40555629 -4.20638769 -3.46743374  0.02339914
H   4.85681532 -2.62061894  0.41170864  0.02981628
H   4.26816107 -1.11837170 -0.34837390  0.02981628
H   5.49504190  0.25213322  1.35913851  0.03675720
H   6.00911460 -1.24621987  2.20859195  0.03675720
H   7.83034515 -0.19998612 -1.51574170  0.15909984
H   6.22984703  0.52570712 -1.13107652  0.15909984
