      -----------------------------------------------------------      
     |                   =====================                   |     
     |                           x T B                           |     
     |                   =====================                   |     
     |                         S. Grimme                         |     
     |          Mulliken Center for Theoretical Chemistry        |     
     |                    University of Bonn                     |     
      -----------------------------------------------------------      

   * xtb version 6.7.1 (edcfbbe) compiled by 'albert@albert-system' on 2024-07-22

   xtb is free software: you can redistribute it and/or modify it under
   the terms of the GNU Lesser General Public License as published by
   the Free Software Foundation, either version 3 of the License, or
   (at your option) any later version.
   
   xtb is distributed in the hope that it will be useful,
   but WITHOUT ANY WARRANTY; without even the implied warranty of
   MERCHANTABILITY or FITNESS FOR A PARTICULAR PURPOSE.  See the
   GNU Lesser General Public License for more details.
   
   Cite this work as:
   * C. Bannwarth, E. Caldeweyher, S. Ehlert, A. Hansen, P. Pracht,
     J. Seibert, S. Spicher, S. Grimme, WIREs Comput. Mol. Sci., 2020, 11,
     e01493. DOI: 10.1002/wcms.1493
   
   for GFN2-xTB:
   * C. Bannwarth, S. Ehlert and S. Grimme., J. Chem. Theory Comput., 2019,
     15, 1652-1671. DOI: 10.1021/acs.jctc.8b01176
   for GFN1-xTB:
   * S. Grimme, C. Bannwarth, P. Shushkov, J. Chem. Theory Comput., 2017,
     13, 1989-2009. DOI: 10.1021/acs.jctc.7b00118
   for GFN0-xTB:
   * P. Pracht, E. Caldeweyher, S. Ehlert, S. Grimme, ChemRxiv, 2019, preprint.
     DOI: 10.26434/chemrxiv.8326202.v1
   for GFN-FF:
   * S. Spicher and S. Grimme, Angew. Chem. Int. Ed., 2020, 59, 15665-15673.
     DOI: 10.1002/anie.202004239
   
   for ALPB and GBSA implicit solvation:
   * S. Ehlert, M. Stahn, S. Spicher, S. Grimme, J. Chem. Theory Comput.,
     2021, 17, 4250-4261. DOI: 10.1021/acs.jctc.1c00471
   
   for ddCOSMO and CPCM-X implicit solvation:
   * M. Stahn, S. Ehlert, S. Grimme, J. Phys. Chem. A,
     2023, XX, XXXX-XXXX. DOI: 10.1021/acs.jpca.3c04382
   
   for DFT-D4:
   * E. Caldeweyher, C. Bannwarth and S. Grimme, J. Chem. Phys., 2017,
     147, 034112. DOI: 10.1063/1.4993215
   * E. Caldeweyher, S. Ehlert, A. Hansen, H. Neugebauer, S. Spicher,
     C. Bannwarth and S. Grimme, J. Chem. Phys., 2019, 150, 154122.
     DOI: 10.1063/1.5090222
   * E. Caldeweyher, J.-M. Mewes, S. Ehlert and S. Grimme, Phys. Chem. Chem. Phys.
     2020, 22, 8499-8512. DOI: 10.1039/D0CP00502A
   
   for sTDA-xTB:
   * S. Grimme and C. Bannwarth, J. Chem. Phys., 2016, 145, 054103.
     DOI: 10.1063/1.4959605
   
   in the mass-spec context:
   * V. Asgeirsson, C. Bauer and S. Grimme, Chem. Sci., 2017, 8, 4879.
     DOI: 10.1039/c7sc00601b
   * J. Koopman and S. Grimme, ACS Omega 2019, 4, 12, 15120-15133.
     DOI: 10.1021/acsomega.9b02011
   
   for metadynamics refer to:
   * S. Grimme, J. Chem. Theory Comput., 2019, 155, 2847-2862
     DOI: 10.1021/acs.jctc.9b00143
   
   for SPH calculations refer to:
   * S. Spicher and S. Grimme, J. Chem. Theory Comput., 2021, 17, 1701-1714
     DOI: 10.1021/acs.jctc.0c01306
   
   for ONIOM refer to:
   * C. Plett, A. Katbashev, S. Ehlert, S. Grimme, M. Bursch,
     Phys. Chem. Chem. Phys., 2023, 25, 17860-17868. DOI: 10.1039/D3CP02178E
   
   for DIPRO refer to:
   * J. Kohn, N. Gildemeister, S. Grimme, D. Fazzi, A. Hansen,
     J. Chem. Phys., 2023, just accepted.
   
   for PTB refer to:
   * S. Grimme, M. Mueller, A. Hansen, J. Chem. Phys., 2023, 158, 124111.
     DOI: 10.1063/5.0137838
   
   with help from (in alphabetical order)
   P. Atkinson, C. Bannwarth, F. Bohle, G. Brandenburg, E. Caldeweyher
   M. Checinski, S. Dohm, S. Ehlert, S. Ehrlich, I. Gerasimov, C. Hölzer
   A. Katbashev, J. Kohn, J. Koopman, C. Lavigne, S. Lehtola, F. März, M. Müller,
   F. Musil, H. Neugebauer, J. Pisarek, C. Plett, P. Pracht, F. Pultar,
   J. Seibert, P. Shushkov, S. Spicher, M. Stahn, M. Steiner, T. Strunk,
   J. Stückrath, T. Rose, and J. Unsleber
   
 * started run on 2026/05/23 at 12:50:46.550     
   ID    Z sym.   atoms
    1    7 N      1, 5, 13, 19, 23, 28, 35
    2    6 C      2, 3, 6-10, 12, 14, 15, 17, 20, 21, 24-26, 29, 30, 32, 33,
                  36, 37, 39, 41-44
    3    8 O      4, 11, 18, 22, 27, 31, 34, 38, 40
    4   16 S      16
    5    1 H      45-89

           -------------------------------------------------
          |                Calculation Setup                |
           -------------------------------------------------

          program call               : /home/xchen/software/xtb-6.7.1/xtb-dist/bin/xtb /home/xchen/Test/benchmark/md_sampled/06_7_0793_0/snap_0193.xyz --charge 0 --gfn 2 --norestart
          coordinate file            : /home/xchen/Test/benchmark/md_sampled/06_7_0793_0/snap_0193.xyz
          omp threads                :                    48


           -------------------------------------------------
          |                 G F N 2 - x T B                 |
           -------------------------------------------------

        Reference                      10.1021/acs.jctc.8b01176
      * Hamiltonian:
        H0-scaling (s, p, d)           1.850000    2.230000    2.230000
        zeta-weighting                 0.500000
      * Dispersion:
        s8                             2.700000
        a1                             0.520000
        a2                             5.000000
        s9                             5.000000
      * Repulsion:
        kExp                           1.500000    1.000000
        rExp                           1.000000
      * Coulomb:
        alpha                          2.000000
        third order                    shell-resolved
        anisotropic                    true
        a3                             3.000000
        a5                             4.000000
        cn-shift                       1.200000
        cn-exp                         4.000000
        max-rad                        5.000000


          ...................................................
          :                      SETUP                      :
          :.................................................:
          :  # basis functions                 227          :
          :  # atomic orbitals                 226          :
          :  # shells                          134          :
          :  # electrons                       248          :
          :  max. iterations                   250          :
          :  Hamiltonian                  GFN2-xTB          :
          :  restarted?                      false          :
          :  GBSA solvation                  false          :
          :  PC potential                    false          :
          :  electronic temp.          300.0000000     K    :
          :  accuracy                    1.0000000          :
          :  -> integral cutoff          0.2500000E+02      :
          :  -> integral neglect         0.1000000E-07      :
          :  -> SCF convergence          0.1000000E-05 Eh   :
          :  -> wf. convergence          0.1000000E-03 e    :
          :  Broyden damping             0.4000000          :
          :  net charge                          0          :
          :  unpaired electrons                  0          :
          ...................................................

 iter      E             dE          RMSdq      gap      omega  full diag
   1   -142.1544150 -0.142154E+03  0.419E+00    4.00       0.0  T
   2   -142.5176032 -0.363188E+00  0.228E+00    3.40       1.0  T
   3   -142.5359975 -0.183942E-01  0.121E+00    3.74       1.0  T
   4   -142.5416918 -0.569429E-02  0.234E-01    3.49       1.0  T
   5   -142.5439660 -0.227420E-02  0.112E-01    3.58       1.0  T
   6   -142.5440994 -0.133376E-03  0.380E-02    3.57       1.0  T
   7   -142.5441152 -0.158293E-04  0.166E-02    3.57       1.0  T
   8   -142.5441187 -0.351915E-05  0.656E-03    3.57       1.6  T
   9   -142.5441192 -0.523321E-06  0.205E-03    3.57       5.2  T
  10   -142.5441193 -0.645707E-07  0.101E-03    3.57      10.5  T
  11   -142.5441193 -0.155979E-07  0.300E-04    3.57      35.3  T
  12   -142.5441193 -0.100755E-08  0.123E-04    3.57      85.9  T

   *** convergence criteria satisfied after 12 iterations ***

         #    Occupation            Energy/Eh            Energy/eV
      -------------------------------------------------------------
         1        2.0000           -0.7328531             -19.9419
       ...           ...                  ...                  ...
       118        2.0000           -0.4057496             -11.0410
       119        2.0000           -0.3999940             -10.8844
       120        2.0000           -0.3992050             -10.8629
       121        2.0000           -0.3959445             -10.7742
       122        2.0000           -0.3954017             -10.7594
       123        2.0000           -0.3857429             -10.4966
       124        2.0000           -0.3764493             -10.2437 (HOMO)
       125                         -0.2453560              -6.6765 (LUMO)
       126                         -0.2431156              -6.6155
       127                         -0.2401655              -6.5352
       128                         -0.2336608              -6.3582
       129                         -0.2289155              -6.2291
       ...                                ...                  ...
       226                          0.6499352              17.6856
      -------------------------------------------------------------
                  HL-Gap            0.1310933 Eh            3.5672 eV
             Fermi-level           -0.3109026 Eh           -8.4601 eV

 SCC (total)                   0 d,  0 h,  0 min,  7.839 sec
 SCC setup                      ...        0 min,  0.043 sec (  0.550%)
 Dispersion                     ...        0 min,  0.085 sec (  1.083%)
 classical contributions        ...        0 min,  0.007 sec (  0.095%)
 integral evaluation            ...        0 min,  0.487 sec (  6.206%)
 iterations                     ...        0 min,  6.280 sec ( 80.109%)
 molecular gradient             ...        0 min,  0.909 sec ( 11.594%)
 printout                       ...        0 min,  0.028 sec (  0.360%)

         :::::::::::::::::::::::::::::::::::::::::::::::::::::
         ::                     SUMMARY                     ::
         :::::::::::::::::::::::::::::::::::::::::::::::::::::
         :: total energy            -141.075364307209 Eh    ::
         :: gradient norm              0.303182652193 Eh/a0 ::
         :: HOMO-LUMO gap              3.567230268677 eV    ::
         ::.................................................::
         :: SCC energy              -142.538615443183 Eh    ::
         :: -> isotropic ES            0.318995528810 Eh    ::
         :: -> anisotropic ES          0.002307383986 Eh    ::
         :: -> anisotropic XC          0.041455870746 Eh    ::
         :: -> dispersion             -0.105174649955 Eh    ::
         :: repulsion energy           1.463251135973 Eh    ::
         :: add. restraining           0.000000000000 Eh    ::
         :: total charge              -0.000000000000 e     ::
         :::::::::::::::::::::::::::::::::::::::::::::::::::::

           -------------------------------------------------
          |                Property Printout                |
           -------------------------------------------------

    * Orbital Energies and Occupations

         #    Occupation            Energy/Eh            Energy/eV
      -------------------------------------------------------------
         1        2.0000           -0.7328531             -19.9419
       ...           ...                  ...                  ...
       112        2.0000           -0.4296701             -11.6919
       113        2.0000           -0.4266907             -11.6108
       114        2.0000           -0.4238855             -11.5345
       115        2.0000           -0.4170909             -11.3496
       116        2.0000           -0.4162321             -11.3263
       117        2.0000           -0.4084042             -11.1132
       118        2.0000           -0.4057496             -11.0410
       119        2.0000           -0.3999940             -10.8844
       120        2.0000           -0.3992050             -10.8629
       121        2.0000           -0.3959445             -10.7742
       122        2.0000           -0.3954017             -10.7594
       123        2.0000           -0.3857429             -10.4966
       124        2.0000           -0.3764493             -10.2437 (HOMO)
       125                         -0.2453560              -6.6765 (LUMO)
       126                         -0.2431156              -6.6155
       127                         -0.2401655              -6.5352
       128                         -0.2336608              -6.3582
       129                         -0.2289155              -6.2291
       130                         -0.2246355              -6.1126
       131                         -0.2235617              -6.0834
       132                         -0.2095520              -5.7022
       133                         -0.1258233              -3.4238
       134                         -0.0861854              -2.3452
       135                         -0.0704651              -1.9175
       ...                                ...                  ...
       226                          0.6499352              17.6856
      -------------------------------------------------------------
                  HL-Gap            0.1310933 Eh            3.5672 eV
             Fermi-level           -0.3109026 Eh           -8.4601 eV

     #   Z          covCN         q      C6AA      α(0)
     1   7 N        2.758    -0.111    23.429     7.189
     2   6 C        3.808     0.016    20.293     6.413
     3   6 C        2.751     0.284    22.181     7.712
     4   8 O        0.864    -0.424    22.173     6.313
     5   7 N        2.694    -0.191    25.151     7.448
     6   6 C        3.786     0.023    20.196     6.401
     7   6 C        3.748     0.003    20.594     6.473
     8   6 C        2.775     0.267    22.494     7.768
     9   6 C        3.831    -0.065    21.729     6.632
    10   6 C        3.828     0.026    20.115     6.382
    11   8 O        0.859    -0.477    23.275     6.468
    12   6 C        3.807    -0.068    21.792     6.645
    13   7 N        2.687    -0.185    25.008     7.427
    14   6 C        3.804    -0.008    20.719     6.480
    15   6 C        2.752     0.262    22.580     7.781
    16  16 S        1.911    -0.249   151.752    20.734
    17   6 C        3.727    -0.021    21.059     6.552
    18   8 O        0.857    -0.445    22.604     6.374
    19   7 N        2.680    -0.181    24.917     7.414
    20   6 C        2.748     0.269    22.449     7.758
    21   6 C        3.798     0.026    20.145     6.391
    22   8 O        0.857    -0.422    22.128     6.307
    23   7 N        2.687    -0.156    24.366     7.331
    24   6 C        3.738    -0.116    22.812     6.815
    25   6 C        2.776     0.262    22.592     7.785
    26   6 C        3.757    -0.002    20.658     6.480
    27   8 O        0.856    -0.446    22.626     6.377
    28   7 N        2.684    -0.198    25.310     7.472
    29   6 C        3.701     0.115    18.851     6.209
    30   6 C        2.756     0.272    22.401     7.751
    31   8 O        1.657    -0.436    21.561     6.268
    32   6 C        3.738    -0.111    22.706     6.799
    33   6 C        3.760    -0.007    20.752     6.494
    34   8 O        0.857    -0.394    21.561     6.226
    35   7 N        2.682    -0.169    24.665     7.376
    36   6 C        3.716     0.112    18.855     6.203
    37   6 C        2.740     0.262    22.589     7.782
    38   8 O        1.654    -0.461    22.062     6.341
    39   6 C        3.746    -0.122    22.908     6.827
    40   8 O        0.859    -0.449    22.690     6.386
    41   6 C        3.834    -0.020    20.912     6.506
    42   6 C        3.737    -0.116    22.807     6.815
    43   6 C        3.774    -0.049    21.485     6.605
    44   6 C        3.742    -0.116    22.792     6.811
    45   1 H        0.923     0.088     1.903     2.158
    46   1 H        0.860     0.183     1.195     1.712
    47   1 H        0.926     0.077     2.009     2.216
    48   1 H        0.926     0.065     2.146     2.291
    49   1 H        0.922     0.053     2.288     2.366
    50   1 H        0.926     0.058     2.224     2.332
    51   1 H        0.929     0.065     2.145     2.290
    52   1 H        0.925     0.073     2.057     2.243
    53   1 H        0.927     0.082     1.956     2.187
    54   1 H        0.918     0.060     2.200     2.320
    55   1 H        0.861     0.219     1.013     1.577
    56   1 H        0.929     0.074     2.043     2.235
    57   1 H        0.928     0.056     2.250     2.345
    58   1 H        0.921     0.160     1.328     1.803
    59   1 H        0.920     0.070     2.087     2.260
    60   1 H        0.919     0.069     2.094     2.263
    61   1 H        0.860     0.188     1.167     1.692
    62   1 H        0.921     0.067     2.115     2.274
    63   1 H        0.858     0.198     1.117     1.656
    64   1 H        0.926     0.102     1.769     2.080
    65   1 H        0.926     0.050     2.316     2.380
    66   1 H        0.915     0.040     2.453     2.450
    67   1 H        0.879     0.087     1.912     2.165
    68   1 H        0.860     0.221     1.007     1.572
    69   1 H        0.911     0.020     2.729     2.584
    70   1 H        0.807     0.295     0.735     1.346
    71   1 H        0.916     0.043     2.417     2.432
    72   1 H        0.925     0.076     2.024     2.225
    73   1 H        0.921     0.059     2.215     2.328
    74   1 H        0.917     0.052     2.291     2.367
    75   1 H        0.861     0.185     1.185     1.705
    76   1 H        0.926     0.049     2.329     2.387
    77   1 H        0.804     0.325     0.651     1.267
    78   1 H        0.921     0.053     2.282     2.363
    79   1 H        0.925     0.060     2.195     2.317
    80   1 H        0.925     0.041     2.433     2.439
    81   1 H        0.919     0.032     2.562     2.503
    82   1 H        0.923     0.063     2.161     2.299
    83   1 H        0.928     0.051     2.301     2.372
    84   1 H        0.918     0.032     2.559     2.502
    85   1 H        0.900     0.010     2.903     2.666
    86   1 H        0.925     0.033     2.542     2.493
    87   1 H        0.919     0.038     2.475     2.461
    88   1 H        0.925     0.036     2.500     2.472
    89   1 H        0.925     0.059     2.213     2.326

 Mol. C6AA /au·bohr⁶  :      76728.880762
 Mol. C8AA /au·bohr⁸  :    1765875.830011
 Mol. α(0) /au        :        413.440788


Wiberg/Mayer (AO) data.
largest (>0.10) Wiberg bond orders for each atom

 ---------------------------------------------------------------------------
     #   Z sym  total        # sym  WBO       # sym  WBO       # sym  WBO
 ---------------------------------------------------------------------------
     1   7 N    3.510 --     8 C    1.308     7 C    0.958     2 C    0.947
                            11 O    0.207
     2   6 C    3.961 --     3 C    0.974    12 C    0.957    45 H    0.952
                             1 N    0.947
     3   6 C    3.951 --     4 O    1.700     5 N    1.208     2 C    0.974
     4   8 O    2.014 --     3 C    1.700     5 N    0.184
     5   7 N    3.398 --     3 C    1.208     6 C    1.001    46 H    0.910
                             4 O    0.184
     6   6 C    3.970 --     5 N    1.001    41 C    0.965    47 H    0.948
                            37 C    0.924
     7   6 C    3.963 --     9 C    1.009    49 H    0.965    48 H    0.964
                             1 N    0.958
     8   6 C    3.961 --    11 O    1.604     1 N    1.308    10 C    0.957
     9   6 C    3.991 --     7 C    1.009    12 C    1.008    50 H    0.975
                            51 H    0.972
    10   6 C    3.970 --    13 N    0.967    14 C    0.960     8 C    0.957
                            52 H    0.949
    11   8 O    1.947 --     8 C    1.604     1 N    0.207
    12   6 C    3.984 --     9 C    1.008    54 H    0.977    53 H    0.975
                             2 C    0.957
    13   7 N    3.418 --    15 C    1.285    10 C    0.967    55 H    0.901
                            18 O    0.189
    14   6 C    3.975 --    16 S    1.022    56 H    0.968    57 H    0.962
                            10 C    0.960
    15   6 C    3.950 --    18 O    1.679    13 N    1.285    17 C    0.919
    16  16 S    2.052 --    14 C    1.022    58 H    0.960
    17   6 C    3.966 --    19 N    1.003    59 H    0.973    60 H    0.962
                            15 C    0.919
    18   8 O    1.986 --    15 C    1.679    13 N    0.189
    19   7 N    3.400 --    20 C    1.211    17 C    1.003    61 H    0.938
                            22 O    0.177
    20   6 C    3.940 --    22 O    1.705    19 N    1.211    21 C    0.943
    21   6 C    3.970 --    23 N    1.002    24 C    0.974    20 C    0.943
                            62 H    0.938
    22   8 O    2.036 --    20 C    1.705    19 N    0.177
    23   7 N    3.449 --    25 C    1.277    21 C    1.002    63 H    0.908
                            27 O    0.190
    24   6 C    3.981 --    66 H    0.987    65 H    0.987    21 C    0.974
                            64 H    0.971
    25   6 C    3.953 --    27 O    1.651    23 N    1.277    26 C    0.948
    26   6 C    3.953 --    28 N    0.986    25 C    0.948    67 H    0.945
                            29 C    0.923
    27   8 O    1.971 --    25 C    1.651    23 N    0.190
    28   7 N    3.431 --    30 C    1.257    26 C    0.986    68 H    0.889
                            34 O    0.203
    29   6 C    3.949 --    32 C    1.012    31 O    0.999    69 H    0.955
                            26 C    0.923
    30   6 C    3.952 --    34 O    1.734    28 N    1.257    33 C    0.879
    31   8 O    1.978 --    29 C    0.999    70 H    0.898
    32   6 C    3.984 --    29 C    1.012    72 H    0.980    71 H    0.978
                            73 H    0.976
    33   6 C    3.942 --    35 N    0.985    74 H    0.954    36 C    0.953
                            30 C    0.879
    34   8 O    2.074 --    30 C    1.734    28 N    0.203
    35   7 N    3.457 --    37 C    1.269    33 C    0.985    75 H    0.941
                            40 O    0.192
    36   6 C    3.958 --    38 O    1.002    39 C    0.997    76 H    0.966
                            33 C    0.953
    37   6 C    3.939 --    40 O    1.651    35 N    1.269     6 C    0.924
    38   8 O    1.986 --    36 C    1.002    77 H    0.850
    39   6 C    3.991 --    36 C    0.997    80 H    0.985    79 H    0.983
                            78 H    0.976
    40   8 O    2.020 --    37 C    1.651    35 N    0.192
    41   6 C    3.988 --    43 C    1.000    42 C    0.990    81 H    0.969
                             6 C    0.965
    42   6 C    3.987 --    41 C    0.990    84 H    0.985    83 H    0.985
                            82 H    0.983
    43   6 C    3.994 --    44 C    1.010    41 C    1.000    86 H    0.976
                            85 H    0.972
    44   6 C    3.984 --    43 C    1.010    88 H    0.989    87 H    0.984
                            89 H    0.981
    45   1 H    0.992 --     2 C    0.952
    46   1 H    0.966 --     5 N    0.910
    47   1 H    0.994 --     6 C    0.948
    48   1 H    0.996 --     7 C    0.964
    49   1 H    0.997 --     7 C    0.965
    50   1 H    0.997 --     9 C    0.975
    51   1 H    0.995 --     9 C    0.972
    52   1 H    0.995 --    10 C    0.949
    53   1 H    0.993 --    12 C    0.975
    54   1 H    0.996 --    12 C    0.977
    55   1 H    0.952 --    13 N    0.901
    56   1 H    0.995 --    14 C    0.968
    57   1 H    0.996 --    14 C    0.962
    58   1 H    0.974 --    16 S    0.960
    59   1 H    0.995 --    17 C    0.973
    60   1 H    0.995 --    17 C    0.962
    61   1 H    0.964 --    19 N    0.938
    62   1 H    0.995 --    21 C    0.938
    63   1 H    0.961 --    23 N    0.908
    64   1 H    0.990 --    24 C    0.971
    65   1 H    0.997 --    24 C    0.987
    66   1 H    0.998 --    24 C    0.987
    67   1 H    0.992 --    26 C    0.945
    68   1 H    0.951 --    28 N    0.889
    69   1 H    0.999 --    29 C    0.955
    70   1 H    0.913 --    31 O    0.898
    71   1 H    0.998 --    32 C    0.978
    72   1 H    0.994 --    32 C    0.980
    73   1 H    0.996 --    32 C    0.976
    74   1 H    0.997 --    33 C    0.954
    75   1 H    0.966 --    35 N    0.941
    76   1 H    0.997 --    36 C    0.966
    77   1 H    0.894 --    38 O    0.850
    78   1 H    0.997 --    39 C    0.976
    79   1 H    0.996 --    39 C    0.983
    80   1 H    0.998 --    39 C    0.985
    81   1 H    0.998 --    41 C    0.969
    82   1 H    0.996 --    42 C    0.983
    83   1 H    0.997 --    42 C    0.985
    84   1 H    0.999 --    42 C    0.985
    85   1 H    1.000 --    43 C    0.972
    86   1 H    0.999 --    43 C    0.976
    87   1 H    0.998 --    44 C    0.984
    88   1 H    0.999 --    44 C    0.989
    89   1 H    0.996 --    44 C    0.981
 ---------------------------------------------------------------------------

Topologies differ in total number of bonds
Writing topology from bond orders to xtbtopo.mol

molecular dipole:
                 x           y           z       tot (Debye)
 q only:        1.686      -0.177       2.059
   full:        1.676      -0.342       1.937       6.568
molecular quadrupole (traceless):
                xx          xy          yy          xz          yz          zz
 q only:       24.159      -2.339      10.296     -18.292      -5.767     -34.455
  q+dip:       15.751       0.028      22.204     -19.226      -8.828     -37.955
   full:       16.665      -1.106      22.068     -18.518      -8.426     -38.733


           -------------------------------------------------
          | TOTAL ENERGY             -141.075364307209 Eh   |
          | GRADIENT NORM               0.303182652193 Eh/α |
          | HOMO-LUMO GAP               3.567230268677 eV   |
           -------------------------------------------------

------------------------------------------------------------------------
 * finished run on 2026/05/23 at 12:50:55.098     
------------------------------------------------------------------------
 total:
 * wall-time:     0 d,  0 h,  0 min,  8.546 sec
 *  cpu-time:     0 d,  0 h,  0 min, 18.533 sec
 * ratio c/w:     2.169 speedup
 SCF:
 * wall-time:     0 d,  0 h,  0 min,  7.840 sec
 *  cpu-time:     0 d,  0 h,  0 min, 17.683 sec
 * ratio c/w:     2.255 speedup

normal termination of xtb
