      -----------------------------------------------------------      
     |                   =====================                   |     
     |                           x T B                           |     
     |                   =====================                   |     
     |                         S. Grimme                         |     
     |          Mulliken Center for Theoretical Chemistry        |     
     |                    University of Bonn                     |     
      -----------------------------------------------------------      

   * xtb version 6.7.1 (edcfbbe) compiled by 'albert@albert-system' on 2024-07-22

   xtb is free software: you can redistribute it and/or modify it under
   the terms of the GNU Lesser General Public License as published by
   the Free Software Foundation, either version 3 of the License, or
   (at your option) any later version.
   
   xtb is distributed in the hope that it will be useful,
   but WITHOUT ANY WARRANTY; without even the implied warranty of
   MERCHANTABILITY or FITNESS FOR A PARTICULAR PURPOSE.  See the
   GNU Lesser General Public License for more details.
   
   Cite this work as:
   * C. Bannwarth, E. Caldeweyher, S. Ehlert, A. Hansen, P. Pracht,
     J. Seibert, S. Spicher, S. Grimme, WIREs Comput. Mol. Sci., 2020, 11,
     e01493. DOI: 10.1002/wcms.1493
   
   for GFN2-xTB:
   * C. Bannwarth, S. Ehlert and S. Grimme., J. Chem. Theory Comput., 2019,
     15, 1652-1671. DOI: 10.1021/acs.jctc.8b01176
   for GFN1-xTB:
   * S. Grimme, C. Bannwarth, P. Shushkov, J. Chem. Theory Comput., 2017,
     13, 1989-2009. DOI: 10.1021/acs.jctc.7b00118
   for GFN0-xTB:
   * P. Pracht, E. Caldeweyher, S. Ehlert, S. Grimme, ChemRxiv, 2019, preprint.
     DOI: 10.26434/chemrxiv.8326202.v1
   for GFN-FF:
   * S. Spicher and S. Grimme, Angew. Chem. Int. Ed., 2020, 59, 15665-15673.
     DOI: 10.1002/anie.202004239
   
   for ALPB and GBSA implicit solvation:
   * S. Ehlert, M. Stahn, S. Spicher, S. Grimme, J. Chem. Theory Comput.,
     2021, 17, 4250-4261. DOI: 10.1021/acs.jctc.1c00471
   
   for ddCOSMO and CPCM-X implicit solvation:
   * M. Stahn, S. Ehlert, S. Grimme, J. Phys. Chem. A,
     2023, XX, XXXX-XXXX. DOI: 10.1021/acs.jpca.3c04382
   
   for DFT-D4:
   * E. Caldeweyher, C. Bannwarth and S. Grimme, J. Chem. Phys., 2017,
     147, 034112. DOI: 10.1063/1.4993215
   * E. Caldeweyher, S. Ehlert, A. Hansen, H. Neugebauer, S. Spicher,
     C. Bannwarth and S. Grimme, J. Chem. Phys., 2019, 150, 154122.
     DOI: 10.1063/1.5090222
   * E. Caldeweyher, J.-M. Mewes, S. Ehlert and S. Grimme, Phys. Chem. Chem. Phys.
     2020, 22, 8499-8512. DOI: 10.1039/D0CP00502A
   
   for sTDA-xTB:
   * S. Grimme and C. Bannwarth, J. Chem. Phys., 2016, 145, 054103.
     DOI: 10.1063/1.4959605
   
   in the mass-spec context:
   * V. Asgeirsson, C. Bauer and S. Grimme, Chem. Sci., 2017, 8, 4879.
     DOI: 10.1039/c7sc00601b
   * J. Koopman and S. Grimme, ACS Omega 2019, 4, 12, 15120-15133.
     DOI: 10.1021/acsomega.9b02011
   
   for metadynamics refer to:
   * S. Grimme, J. Chem. Theory Comput., 2019, 155, 2847-2862
     DOI: 10.1021/acs.jctc.9b00143
   
   for SPH calculations refer to:
   * S. Spicher and S. Grimme, J. Chem. Theory Comput., 2021, 17, 1701-1714
     DOI: 10.1021/acs.jctc.0c01306
   
   for ONIOM refer to:
   * C. Plett, A. Katbashev, S. Ehlert, S. Grimme, M. Bursch,
     Phys. Chem. Chem. Phys., 2023, 25, 17860-17868. DOI: 10.1039/D3CP02178E
   
   for DIPRO refer to:
   * J. Kohn, N. Gildemeister, S. Grimme, D. Fazzi, A. Hansen,
     J. Chem. Phys., 2023, just accepted.
   
   for PTB refer to:
   * S. Grimme, M. Mueller, A. Hansen, J. Chem. Phys., 2023, 158, 124111.
     DOI: 10.1063/5.0137838
   
   with help from (in alphabetical order)
   P. Atkinson, C. Bannwarth, F. Bohle, G. Brandenburg, E. Caldeweyher
   M. Checinski, S. Dohm, S. Ehlert, S. Ehrlich, I. Gerasimov, C. Hölzer
   A. Katbashev, J. Kohn, J. Koopman, C. Lavigne, S. Lehtola, F. März, M. Müller,
   F. Musil, H. Neugebauer, J. Pisarek, C. Plett, P. Pracht, F. Pultar,
   J. Seibert, P. Shushkov, S. Spicher, M. Stahn, M. Steiner, T. Strunk,
   J. Stückrath, T. Rose, and J. Unsleber
   
 * started run on 2026/05/23 at 12:29:24.817     
   ID    Z sym.   atoms
    1    7 N      1, 5, 10, 17, 18, 26, 33, 36, 42, 49, 54
    2    6 C      2, 3, 6-8, 11-14, 19-22, 24, 25, 27-30, 32, 34, 37, 39, 40,
                  43-45, 47, 50-52, 55
    3    8 O      4, 9, 15, 16, 23, 31, 35, 38, 41, 46, 48, 53, 56
    4    1 H      57-109

           -------------------------------------------------
          |                Calculation Setup                |
           -------------------------------------------------

          program call               : /home/xchen/software/xtb-6.7.1/xtb-dist/bin/xtb /home/xchen/Test/benchmark/md_sampled/08_7_0366_0/snap_0028.xyz --charge 0 --gfn 2 --norestart
          coordinate file            : /home/xchen/Test/benchmark/md_sampled/08_7_0366_0/snap_0028.xyz
          omp threads                :                    48


           -------------------------------------------------
          |                 G F N 2 - x T B                 |
           -------------------------------------------------

        Reference                      10.1021/acs.jctc.8b01176
      * Hamiltonian:
        H0-scaling (s, p, d)           1.850000    2.230000    2.230000
        zeta-weighting                 0.500000
      * Dispersion:
        s8                             2.700000
        a1                             0.520000
        a2                             5.000000
        s9                             5.000000
      * Repulsion:
        kExp                           1.500000    1.000000
        rExp                           1.000000
      * Coulomb:
        alpha                          2.000000
        third order                    shell-resolved
        anisotropic                    true
        a3                             3.000000
        a5                             4.000000
        cn-shift                       1.200000
        cn-exp                         4.000000
        max-rad                        5.000000


          ...................................................
          :                      SETUP                      :
          :.................................................:
          :  # basis functions                 277          :
          :  # atomic orbitals                 277          :
          :  # shells                          165          :
          :  # electrons                       314          :
          :  max. iterations                   250          :
          :  Hamiltonian                  GFN2-xTB          :
          :  restarted?                      false          :
          :  GBSA solvation                  false          :
          :  PC potential                    false          :
          :  electronic temp.          300.0000000     K    :
          :  accuracy                    1.0000000          :
          :  -> integral cutoff          0.2500000E+02      :
          :  -> integral neglect         0.1000000E-07      :
          :  -> SCF convergence          0.1000000E-05 Eh   :
          :  -> wf. convergence          0.1000000E-03 e    :
          :  Broyden damping             0.4000000          :
          :  net charge                          0          :
          :  unpaired electrons                  0          :
          ...................................................

 iter      E             dE          RMSdq      gap      omega  full diag
   1   -181.9389430 -0.181939E+03  0.427E+00    3.81       0.0  T
   2   -182.3811798 -0.442237E+00  0.226E+00    3.70       1.0  T
   3   -182.4014367 -0.202568E-01  0.122E+00    3.71       1.0  T
   4   -182.4071562 -0.571954E-02  0.202E-01    3.60       1.0  T
   5   -182.4097825 -0.262625E-02  0.936E-02    3.62       1.0  T
   6   -182.4098458 -0.633592E-04  0.356E-02    3.62       1.0  T
   7   -182.4098588 -0.129247E-04  0.125E-02    3.62       1.0  T
   8   -182.4098624 -0.362816E-05  0.476E-03    3.62       2.0  T
   9   -182.4098629 -0.493898E-06  0.197E-03    3.62       4.9  T
  10   -182.4098629 -0.540989E-07  0.801E-04    3.62      12.0  T
  11   -182.4098630 -0.210405E-07  0.207E-04    3.62      46.3  T

   *** convergence criteria satisfied after 11 iterations ***

         #    Occupation            Energy/Eh            Energy/eV
      -------------------------------------------------------------
         1        2.0000           -0.7462321             -20.3060
       ...           ...                  ...                  ...
       151        2.0000           -0.4037053             -10.9854
       152        2.0000           -0.4006079             -10.9011
       153        2.0000           -0.3963313             -10.7847
       154        2.0000           -0.3929080             -10.6916
       155        2.0000           -0.3921590             -10.6712
       156        2.0000           -0.3912710             -10.6470
       157        2.0000           -0.3722419             -10.1292 (HOMO)
       158                         -0.2391616              -6.5079 (LUMO)
       159                         -0.2356532              -6.4125
       160                         -0.2327875              -6.3345
       161                         -0.2302295              -6.2649
       162                         -0.2295402              -6.2461
       ...                                ...                  ...
       277                          0.7972536              21.6944
      -------------------------------------------------------------
                  HL-Gap            0.1330803 Eh            3.6213 eV
             Fermi-level           -0.3057017 Eh           -8.3186 eV

 SCC (total)                   0 d,  0 h,  0 min, 24.184 sec
 SCC setup                      ...        0 min,  0.025 sec (  0.103%)
 Dispersion                     ...        0 min,  0.114 sec (  0.472%)
 classical contributions        ...        0 min,  0.006 sec (  0.024%)
 integral evaluation            ...        0 min,  0.723 sec (  2.991%)
 iterations                     ...        0 min, 21.691 sec ( 89.689%)
 molecular gradient             ...        0 min,  1.597 sec (  6.604%)
 printout                       ...        0 min,  0.028 sec (  0.115%)

         :::::::::::::::::::::::::::::::::::::::::::::::::::::
         ::                     SUMMARY                     ::
         :::::::::::::::::::::::::::::::::::::::::::::::::::::
         :: total energy            -180.498147400254 Eh    ::
         :: gradient norm              0.389823332147 Eh/a0 ::
         :: HOMO-LUMO gap              3.621299570474 eV    ::
         ::.................................................::
         :: SCC energy              -182.401124954863 Eh    ::
         :: -> isotropic ES            0.451694617364 Eh    ::
         :: -> anisotropic ES          0.010720075250 Eh    ::
         :: -> anisotropic XC          0.045508827896 Eh    ::
         :: -> dispersion             -0.133985137736 Eh    ::
         :: repulsion energy           1.902977554609 Eh    ::
         :: add. restraining           0.000000000000 Eh    ::
         :: total charge               0.000000000000 e     ::
         :::::::::::::::::::::::::::::::::::::::::::::::::::::

           -------------------------------------------------
          |                Property Printout                |
           -------------------------------------------------

    * Orbital Energies and Occupations

         #    Occupation            Energy/Eh            Energy/eV
      -------------------------------------------------------------
         1        2.0000           -0.7462321             -20.3060
       ...           ...                  ...                  ...
       145        2.0000           -0.4147739             -11.2866
       146        2.0000           -0.4121738             -11.2158
       147        2.0000           -0.4102026             -11.1622
       148        2.0000           -0.4089521             -11.1282
       149        2.0000           -0.4067021             -11.0669
       150        2.0000           -0.4057162             -11.0401
       151        2.0000           -0.4037053             -10.9854
       152        2.0000           -0.4006079             -10.9011
       153        2.0000           -0.3963313             -10.7847
       154        2.0000           -0.3929080             -10.6916
       155        2.0000           -0.3921590             -10.6712
       156        2.0000           -0.3912710             -10.6470
       157        2.0000           -0.3722419             -10.1292 (HOMO)
       158                         -0.2391616              -6.5079 (LUMO)
       159                         -0.2356532              -6.4125
       160                         -0.2327875              -6.3345
       161                         -0.2302295              -6.2649
       162                         -0.2295402              -6.2461
       163                         -0.2285997              -6.2205
       164                         -0.2284967              -6.2177
       165                         -0.2254247              -6.1341
       166                         -0.2179257              -5.9301
       167                         -0.2111855              -5.7467
       168                         -0.2087200              -5.6796
       ...                                ...                  ...
       277                          0.7972536              21.6944
      -------------------------------------------------------------
                  HL-Gap            0.1330803 Eh            3.6213 eV
             Fermi-level           -0.3057017 Eh           -8.3186 eV

     #   Z          covCN         q      C6AA      α(0)
     1   7 N        2.730    -0.215    25.693     7.528
     2   6 C        3.830     0.023    20.173     6.391
     3   6 C        2.784     0.291    22.065     7.694
     4   8 O        0.870    -0.404    21.748     6.253
     5   7 N        2.680    -0.240    26.270     7.612
     6   6 C        3.771     0.021    20.259     6.414
     7   6 C        2.793     0.289    22.100     7.701
     8   6 C        3.792     0.033    20.034     6.374
     9   8 O        0.866    -0.419    22.066     6.298
    10   7 N        2.693    -0.212    25.611     7.516
    11   6 C        3.806    -0.097    22.354     6.731
    12   6 C        2.745     0.282    22.223     7.719
    13   6 C        2.743     0.301    21.892     7.661
    14   6 C        3.773     0.005    20.521     6.455
    15   8 O        0.858    -0.389    21.465     6.212
    16   8 O        0.859    -0.388    21.448     6.209
    17   7 N        2.619    -0.264    26.845     7.695
    18   7 N        2.680    -0.180    24.899     7.411
    19   6 C        3.796    -0.072    21.890     6.662
    20   6 C        2.744     0.264    22.548     7.775
    21   6 C        3.847    -0.008    20.687     6.470
    22   6 C        3.769     0.024    20.197     6.405
    23   8 O        0.858    -0.435    22.399     6.345
    24   6 C        3.769    -0.119    22.824     6.809
    25   6 C        3.761    -0.121    22.865     6.817
    26   7 N        2.678    -0.210    25.564     7.509
    27   6 C        3.801    -0.051    21.489     6.600
    28   6 C        2.742     0.279    22.282     7.729
    29   6 C        3.801    -0.092    22.250     6.716
    30   6 C        3.758     0.007    20.511     6.457
    31   8 O        0.857    -0.362    20.933     6.134
    32   6 C        2.739     0.274    22.358     7.742
    33   7 N        2.687    -0.184    24.995     7.425
    34   6 C        3.708     0.115    18.834     6.203
    35   8 O        0.858    -0.450    22.710     6.389
    36   7 N        2.633    -0.264    26.850     7.696
    37   6 C        2.742     0.277    22.321     7.736
    38   8 O        1.650    -0.458    22.019     6.334
    39   6 C        3.739    -0.123    22.943     6.835
    40   6 C        3.782     0.022    20.215     6.405
    41   8 O        0.857    -0.383    21.338     6.193
    42   7 N        2.680    -0.174    24.766     7.391
    43   6 C        3.796    -0.064    21.741     6.640
    44   6 C        2.746     0.287    22.127     7.702
    45   6 C        3.782    -0.097    22.362     6.736
    46   8 O        0.857    -0.400    21.687     6.244
    47   6 C        2.732     0.279    22.274     7.727
    48   8 O        0.857    -0.418    22.044     6.295
    49   7 N        2.631    -0.276    27.128     7.735
    50   6 C        3.787    -0.073    21.907     6.666
    51   6 C        3.789    -0.091    22.252     6.718
    52   6 C        2.741     0.280    22.252     7.724
    53   8 O        0.858    -0.393    21.534     6.222
    54   7 N        2.626    -0.310    27.977     7.856
    55   6 C        3.687     0.065    19.681     6.350
    56   8 O        1.652    -0.440    21.639     6.279
    57   1 H        0.859     0.201     1.103     1.645
    58   1 H        0.923     0.072     2.063     2.246
    59   1 H        0.854     0.171     1.271     1.766
    60   1 H        0.917     0.070     2.088     2.260
    61   1 H        0.906     0.072     2.067     2.249
    62   1 H        0.861     0.176     1.235     1.741
    63   1 H        0.912     0.058     2.229     2.336
    64   1 H        0.929     0.074     2.038     2.232
    65   1 H        0.918     0.087     1.908     2.160
    66   1 H        0.858     0.174     1.250     1.751
    67   1 H        0.846     0.188     1.171     1.696
    68   1 H        0.860     0.201     1.099     1.642
    69   1 H        0.917     0.044     2.394     2.420
    70   1 H        0.927     0.041     2.431     2.438
    71   1 H        0.926     0.029     2.603     2.523
    72   1 H        0.911     0.081     1.972     2.196
    73   1 H        0.923     0.037     2.484     2.465
    74   1 H        0.928     0.045     2.384     2.414
    75   1 H        0.927     0.032     2.552     2.498
    76   1 H        0.928     0.045     2.387     2.416
    77   1 H        0.924     0.045     2.390     2.417
    78   1 H        0.927     0.054     2.272     2.357
    79   1 H        0.860     0.176     1.236     1.742
    80   1 H        0.925     0.060     2.197     2.318
    81   1 H        0.922     0.050     2.316     2.380
    82   1 H        0.926     0.060     2.199     2.319
    83   1 H        0.921     0.062     2.177     2.307
    84   1 H        0.906     0.085     1.926     2.171
    85   1 H        0.859     0.187     1.173     1.696
    86   1 H        0.916     0.040     2.450     2.448
    87   1 H        0.861     0.198     1.118     1.656
    88   1 H        0.860     0.191     1.155     1.683
    89   1 H        0.804     0.287     0.762     1.371
    90   1 H        0.928     0.067     2.123     2.278
    91   1 H        0.915     0.040     2.456     2.451
    92   1 H        0.923     0.044     2.393     2.419
    93   1 H        0.922     0.080     1.976     2.198
    94   1 H        0.854     0.171     1.269     1.765
    95   1 H        0.915     0.038     2.483     2.465
    96   1 H        0.928     0.065     2.140     2.288
    97   1 H        0.913     0.032     2.562     2.503
    98   1 H        0.928     0.077     2.009     2.217
    99   1 H        0.857     0.193     1.141     1.673
   100   1 H        0.861     0.197     1.123     1.660
   101   1 H        0.919     0.079     1.994     2.209
   102   1 H        0.919     0.076     2.025     2.226
   103   1 H        0.925     0.086     1.922     2.168
   104   1 H        0.916     0.037     2.490     2.468
   105   1 H        0.854     0.178     1.224     1.734
   106   1 H        0.858     0.200     1.105     1.647
   107   1 H        0.917     0.033     2.549     2.497
   108   1 H        0.928     0.066     2.133     2.284
   109   1 H        0.807     0.307     0.699     1.313

 Mol. C6AA /au·bohr⁶  :     113170.353348
 Mol. C8AA /au·bohr⁸  :    2501159.409636
 Mol. α(0) /au        :        499.968022


Wiberg/Mayer (AO) data.
largest (>0.10) Wiberg bond orders for each atom

 ---------------------------------------------------------------------------
     #   Z sym  total        # sym  WBO       # sym  WBO       # sym  WBO
 ---------------------------------------------------------------------------
     1   7 N    3.350 --     7 C    1.194     2 C    0.983    57 H    0.895
                             9 O    0.177
     2   6 C    3.971 --     1 N    0.983     3 C    0.964    50 C    0.960
                            58 H    0.946
     3   6 C    3.938 --     4 O    1.733     5 N    1.165     2 C    0.964
     4   8 O    2.073 --     3 C    1.733     5 N    0.177
     5   7 N    3.326 --     3 C    1.165     6 C    0.960    59 H    0.935
                             4 O    0.177
     6   6 C    3.960 --    55 C    0.983     5 N    0.960    60 H    0.960
                            44 C    0.930
     7   6 C    3.951 --     9 O    1.722     1 N    1.194     8 C    0.959
     8   6 C    3.969 --    10 N    0.985    11 C    0.967     7 C    0.959
                            61 H    0.930
     9   8 O    2.025 --     7 C    1.722     1 N    0.177
    10   7 N    3.388 --    12 C    1.188     8 C    0.985    62 H    0.932
                            15 O    0.188
    11   6 C    3.980 --     8 C    0.967    63 H    0.961    64 H    0.958
                            13 C    0.956
    12   6 C    3.943 --    15 O    1.759    10 N    1.188    14 C    0.917
    13   6 C    3.952 --    16 O    1.749    17 N    1.220    11 C    0.956
    14   6 C    3.960 --    18 N    0.986    19 C    0.981    65 H    0.931
                            12 C    0.917
    15   8 O    2.079 --    12 C    1.759    10 N    0.188
    16   8 O    2.054 --    13 C    1.749    17 N    0.195
    17   7 N    3.331 --    13 C    1.220    66 H    0.946    67 H    0.938
                            16 O    0.195
    18   7 N    3.422 --    20 C    1.251    14 C    0.986    68 H    0.924
                            23 O    0.188
    19   6 C    3.990 --    21 C    0.986    14 C    0.981    70 H    0.971
                            69 H    0.968
    20   6 C    3.946 --    23 O    1.690    18 N    1.251    22 C    0.930
    21   6 C    3.993 --    25 C    1.008    24 C    1.007    19 C    0.986
                            71 H    0.972
    22   6 C    3.966 --    27 C    0.992    26 N    0.973    72 H    0.937
                            20 C    0.930
    23   8 O    2.014 --    20 C    1.690    18 N    0.188
    24   6 C    3.987 --    21 C    1.007    75 H    0.984    74 H    0.983
                            73 H    0.980
    25   6 C    3.992 --    21 C    1.008    76 H    0.987    78 H    0.981
                            77 H    0.980
    26   7 N    3.359 --    28 C    1.172    22 C    0.973    79 H    0.929
                            31 O    0.186
    27   6 C    3.990 --    22 C    0.992    29 C    0.984    81 H    0.972
                            80 H    0.971
    28   6 C    3.940 --    31 O    1.802    26 N    1.172    30 C    0.888
    29   6 C    3.992 --    27 C    0.984    32 C    0.971    83 H    0.963
                            82 H    0.963
    30   6 C    3.963 --    33 N    0.999    34 C    0.974    84 H    0.951
                            28 C    0.888
    31   8 O    2.114 --    28 C    1.802    26 N    0.186
    32   6 C    3.943 --    35 O    1.685    36 N    1.259    29 C    0.971
    33   7 N    3.391 --    37 C    1.175    30 C    0.999    85 H    0.912
                            41 O    0.194
    34   6 C    3.946 --    39 C    0.992    30 C    0.974    38 O    0.973
                            86 H    0.959
    35   8 O    1.971 --    32 C    1.685    36 N    0.186
    36   7 N    3.359 --    32 C    1.259    88 H    0.943    87 H    0.941
                            35 O    0.186
    37   6 C    3.948 --    41 O    1.758    33 N    1.175    40 C    0.931
    38   8 O    1.953 --    34 C    0.973    89 H    0.902
    39   6 C    3.986 --    34 C    0.992    90 H    0.987    91 H    0.985
                            92 H    0.980
    40   6 C    3.962 --    42 N    0.985    43 C    0.980    93 H    0.947
                            37 C    0.931
    41   8 O    2.075 --    37 C    1.758    33 N    0.194
    42   7 N    3.414 --    44 C    1.203    40 C    0.985    94 H    0.936
                            46 O    0.203
    43   6 C    3.990 --    45 C    0.988    40 C    0.980    95 H    0.974
                            96 H    0.973
    44   6 C    3.948 --    46 O    1.736    42 N    1.203     6 C    0.930
    45   6 C    3.984 --    43 C    0.988    98 H    0.960    97 H    0.955
                            47 C    0.938
    46   8 O    2.063 --    44 C    1.736    42 N    0.203
    47   6 C    3.939 --    48 O    1.729    49 N    1.244    45 C    0.938
    48   8 O    2.039 --    47 C    1.729    49 N    0.194
    49   7 N    3.354 --    47 C    1.244   100 H    0.942    99 H    0.938
                            48 O    0.194
    50   6 C    3.978 --    51 C    0.985   101 H    0.970   102 H    0.964
                             2 C    0.960
    51   6 C    3.991 --    50 C    0.985   104 H    0.974    52 C    0.967
                           103 H    0.958
    52   6 C    3.941 --    53 O    1.768    54 N    1.174    51 C    0.967
    53   8 O    2.062 --    52 C    1.768    54 N    0.177
    54   7 N    3.261 --    52 C    1.174   106 H    0.938   105 H    0.937
                            53 O    0.177
    55   6 C    3.962 --    56 O    0.992     6 C    0.983   107 H    0.975
                           108 H    0.966
    56   8 O    1.952 --    55 C    0.992   109 H    0.897
    57   1 H    0.960 --     1 N    0.895
    58   1 H    0.995 --     2 C    0.946
    59   1 H    0.971 --     5 N    0.935
    60   1 H    0.994 --     6 C    0.960
    61   1 H    0.995 --     8 C    0.930
    62   1 H    0.969 --    10 N    0.932
    63   1 H    0.997 --    11 C    0.961
    64   1 H    0.994 --    11 C    0.958
    65   1 H    0.992 --    14 C    0.931
    66   1 H    0.970 --    17 N    0.946
    67   1 H    0.964 --    17 N    0.938
    68   1 H    0.959 --    18 N    0.924
    69   1 H    0.998 --    19 C    0.968
    70   1 H    0.998 --    19 C    0.971
    71   1 H    0.999 --    21 C    0.972
    72   1 H    0.992 --    22 C    0.937
    73   1 H    0.999 --    24 C    0.980
    74   1 H    0.998 --    24 C    0.983
    75   1 H    0.998 --    24 C    0.984
    76   1 H    0.998 --    25 C    0.987
    77   1 H    0.998 --    25 C    0.980
    78   1 H    0.997 --    25 C    0.981
    79   1 H    0.969 --    26 N    0.929
    80   1 H    0.996 --    27 C    0.971
    81   1 H    0.997 --    27 C    0.972
    82   1 H    0.996 --    29 C    0.963
    83   1 H    0.996 --    29 C    0.963
    84   1 H    0.992 --    30 C    0.951
    85   1 H    0.965 --    33 N    0.912
    86   1 H    0.998 --    34 C    0.959
    87   1 H    0.961 --    36 N    0.941
    88   1 H    0.964 --    36 N    0.943
    89   1 H    0.918 --    38 O    0.902
    90   1 H    0.995 --    39 C    0.987
    91   1 H    0.998 --    39 C    0.985
    92   1 H    0.997 --    39 C    0.980
    93   1 H    0.992 --    40 C    0.947
    94   1 H    0.970 --    42 N    0.936
    95   1 H    0.998 --    43 C    0.974
    96   1 H    0.995 --    43 C    0.973
    97   1 H    0.999 --    45 C    0.955
    98   1 H    0.994 --    45 C    0.960
    99   1 H    0.962 --    49 N    0.938
   100   1 H    0.961 --    49 N    0.942
   101   1 H    0.993 --    50 C    0.970
   102   1 H    0.994 --    50 C    0.964
   103   1 H    0.992 --    51 C    0.958
   104   1 H    0.999 --    51 C    0.974
   105   1 H    0.968 --    54 N    0.937
   106   1 H    0.960 --    54 N    0.938
   107   1 H    0.999 --    55 C    0.975
   108   1 H    0.996 --    55 C    0.966
   109   1 H    0.905 --    56 O    0.897
 ---------------------------------------------------------------------------

Topologies differ in total number of bonds
Writing topology from bond orders to xtbtopo.mol

molecular dipole:
                 x           y           z       tot (Debye)
 q only:       -0.313      -1.230       1.822
   full:       -0.670      -1.498       1.448       5.562
molecular quadrupole (traceless):
                xx          xy          yy          xz          yz          zz
 q only:       41.630      32.853     -32.698      13.654     -53.028      -8.931
  q+dip:       40.305      45.166     -34.813      24.619     -67.982      -5.492
   full:       41.354      45.256     -36.521      24.274     -67.801      -4.833


           -------------------------------------------------
          | TOTAL ENERGY             -180.498147400254 Eh   |
          | GRADIENT NORM               0.389823332147 Eh/α |
          | HOMO-LUMO GAP               3.621299570474 eV   |
           -------------------------------------------------

------------------------------------------------------------------------
 * finished run on 2026/05/23 at 12:29:49.875     
------------------------------------------------------------------------
 total:
 * wall-time:     0 d,  0 h,  0 min, 25.057 sec
 *  cpu-time:     0 d,  0 h,  0 min, 32.128 sec
 * ratio c/w:     1.282 speedup
 SCF:
 * wall-time:     0 d,  0 h,  0 min, 24.186 sec
 *  cpu-time:     0 d,  0 h,  0 min, 31.156 sec
 * ratio c/w:     1.288 speedup

normal termination of xtb
