      -----------------------------------------------------------      
     |                   =====================                   |     
     |                           x T B                           |     
     |                   =====================                   |     
     |                         S. Grimme                         |     
     |          Mulliken Center for Theoretical Chemistry        |     
     |                    University of Bonn                     |     
      -----------------------------------------------------------      

   * xtb version 6.7.1 (26dd68d) compiled by 'froitzheim@fs7' on 2026-05-14

   xtb is free software: you can redistribute it and/or modify it under
   the terms of the GNU Lesser General Public License as published by
   the Free Software Foundation, either version 3 of the License, or
   (at your option) any later version.
   
   xtb is distributed in the hope that it will be useful,
   but WITHOUT ANY WARRANTY; without even the implied warranty of
   MERCHANTABILITY or FITNESS FOR A PARTICULAR PURPOSE.  See the
   GNU Lesser General Public License for more details.
   
   Cite this work as:
   * C. Bannwarth, E. Caldeweyher, S. Ehlert, A. Hansen, P. Pracht,
     J. Seibert, S. Spicher, S. Grimme, WIREs Comput. Mol. Sci., 2020, 11,
     e01493. DOI: 10.1002/wcms.1493
   
   for g-xTB:
   * T. Froitzheim, M. Müller, A. Hansen, S. Grimme, ChemRxiv, 2025, preprint.
     DOI: 10.26434/chemrxiv-2025-bjxv
   for GFN2-xTB:
   * C. Bannwarth, S. Ehlert and S. Grimme., J. Chem. Theory Comput., 2019,
     15, 1652-1671. DOI: 10.1021/acs.jctc.8b01176
   for GFN1-xTB:
   * S. Grimme, C. Bannwarth, P. Shushkov, J. Chem. Theory Comput., 2017,
     13, 1989-2009. DOI: 10.1021/acs.jctc.7b00118
   for GFN0-xTB:
   * P. Pracht, E. Caldeweyher, S. Ehlert, S. Grimme, ChemRxiv, 2019, preprint.
     DOI: 10.26434/chemrxiv.8326202.v1
   for GFN-FF:
   * S. Spicher and S. Grimme, Angew. Chem. Int. Ed., 2020, 59, 15665-15673.
     DOI: 10.1002/anie.202004239
   
   for ALPB and GBSA implicit solvation:
   * S. Ehlert, M. Stahn, S. Spicher, S. Grimme, J. Chem. Theory Comput.,
     2021, 17, 4250-4261. DOI: 10.1021/acs.jctc.1c00471
   
   for ddCOSMO and CPCM-X implicit solvation:
   * M. Stahn, S. Ehlert, S. Grimme, J. Phys. Chem. A,
     2023, XX, XXXX-XXXX. DOI: 10.1021/acs.jpca.3c04382
   
   for DFT-D4:
   * E. Caldeweyher, C. Bannwarth and S. Grimme, J. Chem. Phys., 2017,
     147, 034112. DOI: 10.1063/1.4993215
   * E. Caldeweyher, S. Ehlert, A. Hansen, H. Neugebauer, S. Spicher,
     C. Bannwarth and S. Grimme, J. Chem. Phys., 2019, 150, 154122.
     DOI: 10.1063/1.5090222
   * E. Caldeweyher, J.-M. Mewes, S. Ehlert and S. Grimme, Phys. Chem. Chem. Phys.
     2020, 22, 8499-8512. DOI: 10.1039/D0CP00502A
   
   for sTDA-xTB:
   * S. Grimme and C. Bannwarth, J. Chem. Phys., 2016, 145, 054103.
     DOI: 10.1063/1.4959605
   
   in the mass-spec context:
   * V. Asgeirsson, C. Bauer and S. Grimme, Chem. Sci., 2017, 8, 4879.
     DOI: 10.1039/c7sc00601b
   * J. Koopman and S. Grimme, ACS Omega 2019, 4, 12, 15120-15133.
     DOI: 10.1021/acsomega.9b02011
   
   for metadynamics refer to:
   * S. Grimme, J. Chem. Theory Comput., 2019, 155, 2847-2862
     DOI: 10.1021/acs.jctc.9b00143
   
   for SPH calculations refer to:
   * S. Spicher and S. Grimme, J. Chem. Theory Comput., 2021, 17, 1701-1714
     DOI: 10.1021/acs.jctc.0c01306
   
   for ONIOM refer to:
   * C. Plett, A. Katbashev, S. Ehlert, S. Grimme, M. Bursch,
     Phys. Chem. Chem. Phys., 2023, 25, 17860-17868. DOI: 10.1039/D3CP02178E
   
   for DIPRO refer to:
   * J. Kohn, N. Gildemeister, S. Grimme, D. Fazzi, A. Hansen,
     J. Chem. Phys. 159, 144106 (2023). DOI: 10.1063/5.0167484
   
   for PTB refer to:
   * S. Grimme, M. Mueller, A. Hansen, J. Chem. Phys., 2023, 158, 124111.
     DOI: 10.1063/5.0137838
   
   with help from (in alphabetical order)
   P. Atkinson, C. Bannwarth, F. Bohle, G. Brandenburg, E. Caldeweyher,
   M. Checinski, S. Dohm, S. Ehlert, S. Ehrlich, M. Friede, T. Froitzheim,
   I. Gerasimov, C. Hölzer, A. Katbashev, J. Kohn, J. Koopman, C. Lavigne,
   S. Lehtola, F. März, M. Müller, F. Musil, H. Neugebauer, J. Pisarek,
   C. Plett, P. Pracht, F. Pultar, J. Seibert, P. Shushkov, S. Spicher,
   M. Stahn, M. Steiner, T. Strunk, J. Stückrath, T. Rose, and J. Unsleber
   
 * started run on 2026/05/23 at 12:28:32.927     
   ID    Z sym.   atoms
    1    7 N      1, 5, 10, 18, 29, 37, 45, 48
    2    6 C      2, 3, 6-8, 11-14, 16, 17, 19-25, 27, 28, 30-33, 35, 36,
                  38-43, 46, 47, 49-56
    3    8 O      4, 9, 15, 26, 34, 44
    4    1 H      57-114

           -------------------------------------------------
          |                Calculation Setup                |
           -------------------------------------------------

          program call               : /home/xchen/software/xtb-6.7.1-gxtb/bin/xtb /home/xchen/Test/benchmark/md_sampled/10_6_0573_0/snap_0026.xyz --charge 0 --gxtb --norestart
          coordinate file            : /home/xchen/Test/benchmark/md_sampled/10_6_0573_0/snap_0026.xyz
          omp threads                :                    48

core increment energy         -2.2833104851216E+03 Eh
dispersion energy              2.6908197328686E-02 Eh
molecular charge               0.0000000000000E+00 e
number of electrons            3.0199999999720E+02 e
number of unpaired electrons   0.0000000000000E+00 e
wavefunction                   restricted
integral cutoff                2.6907767250513E+01 bohr
energy convergence             1.0000000000000E-06 Eh
density convergence            2.0000000000000E-05 e

------------------------------------------------------------
  cycle        total energy    energy error   density error
------------------------------------------------------------
      1     -2523.660457254  -2.4037688E+02   0.0000000E+00
      2     -2524.027566981  -3.6710973E-01   1.8635854E-02
      3     -2524.246727607  -2.1916063E-01   1.4486744E-02
      4     -2524.669235303  -4.2250770E-01   1.1397458E-02
      5     -2524.679803675  -1.0568372E-02   1.2117996E-03
      6     -2524.680322518  -5.1884264E-04   1.8075334E-04
      7     -2524.680417242  -9.4724594E-05   1.0328648E-04
      8     -2524.680426896  -9.6540056E-06   1.9636049E-05
      9     -2524.680428060  -1.1642553E-06   5.0599389E-06
     10     -2524.680428182  -1.2159393E-07   1.3130913E-06
------------------------------------------------------------

electronic energy             -2.4139685125769E+02 Eh
total energy                  -2.5246804281820E+03 Eh

Post processing:
 | Mayer-Wiberg bond orders
 | Molecular Multipole Moments

 total:                                  20.077 sec
 - increment                              0.000 sec (  0%)
 - repulsion                              0.016 sec (  0%)
 - dispersion                             0.779 sec (  3%)
 - coulomb                                0.269 sec (  1%)
 - exchange                               0.013 sec (  0%)
 - hamiltonian                            0.676 sec (  3%)
 - acp                                    0.494 sec (  2%)
 - spin polarization                      0.000 sec (  0%)
 - post processing                        0.232 sec (  1%)
 - scc                                   15.667 sec ( 78%)
 - coulomb gradient                       0.182 sec (  0%)
 - dispersion gradient                    0.092 sec (  0%)
 - exchange gradient                      0.253 sec (  1%)
 - repulsion gradient                     0.008 sec (  0%)
 - acp gradient                           0.506 sec (  2%)
 - hamiltonian gradient                   1.115 sec (  5%)
 - gradient                               2.154 sec ( 10%)

         :::::::::::::::::::::::::::::::::::::::::::::::::::::
         ::                     SUMMARY                     ::
         :::::::::::::::::::::::::::::::::::::::::::::::::::::
         :: total energy           -2524.680428181961 Eh    ::
         :: gradient norm              0.400637452957 Eh/a0 ::
         :: HOMO-LUMO gap              8.214528503217 eV    ::
         ::.................................................::
         :: add. restraining           0.000000000000 Eh    ::
         :: total charge              -0.000000000000 e     ::
         :::::::::::::::::::::::::::::::::::::::::::::::::::::

           -------------------------------------------------
          |                Property Printout                |
           -------------------------------------------------

    * Orbital Energies and Occupations
------------------------------------------------------------------
      #    Occupation            Energy/Eh            Energy/eV
------------------------------------------------------------------
      1        2.0000           -1.3339360             -36.2982
    ...           ...                  ...                  ...
    139        2.0000           -0.3734666             -10.1625
    140        2.0000           -0.3715178             -10.1095
    141        2.0000           -0.3648515              -9.9281
    142        2.0000           -0.3609781              -9.8227
    143        2.0000           -0.3571586              -9.7188
    144        2.0000           -0.3549564              -9.6589
    145        2.0000           -0.3508215              -9.5463
    146        2.0000           -0.3481361              -9.4733
    147        2.0000           -0.3437736              -9.3546
    148        2.0000           -0.3423712              -9.3164
    149        2.0000           -0.3393749              -9.2349
    150        2.0000           -0.3290652              -8.9543
    151        2.0000           -0.3130060              -8.5173 (HOMO)
    152                         -0.0111276              -0.3028 (LUMO)
    153                          0.0045788               0.1246
    154                          0.0063356               0.1724
    155                          0.0140648               0.3827
    156                          0.0262601               0.7146
    157                          0.0308149               0.8385
    158                          0.0342644               0.9324
    159                          0.0412051               1.1212
    160                          0.0546607               1.4874
    161                          0.0622833               1.6948
    162                          0.0794312               2.1614
    ...                                ...                  ...
    282                          0.9323132              25.3695
------------------------------------------------------------------
               HL-Gap            0.3018784 Eh            8.2145 eV
------------------------------------------------------------------

Atomic charges and shell populations (in atomic units):
------------------------------------------------------
     #    Z                q          p(s)       p(p)
------------------------------------------------------
     1    7 N      -0.303016      1.364834   3.938182
     2    6 C       0.015968      1.131122   2.852910
     3    6 C       0.410965      1.077673   2.511362
     4    8 O      -0.534125      1.852157   4.681968
     5    7 N      -0.313538      1.348775   3.964763
     6    6 C       0.007634      1.138769   2.853597
     7    6 C       0.403658      1.123507   2.472835
     8    6 C       0.035875      1.128428   2.835696
     9    8 O      -0.599542      1.849979   4.749563
    10    7 N      -0.303010      1.343170   3.959839
    11    6 C      -0.184336      1.144738   3.039598
    12    6 C       0.399350      1.116799   2.483851
    13    6 C      -0.034608      1.120587   2.914021
    14    6 C       0.004381      1.128354   2.867265
    15    8 O      -0.557313      1.862074   4.695239
    16    6 C      -0.116404      1.147528   2.968876
    17    6 C      -0.113491      1.156887   2.956604
    18    7 N      -0.386390      1.350570   4.035820
    19    6 C      -0.170078      1.151106   3.018972
    20    6 C      -0.089371      1.140341   2.949030
    21    6 C      -0.116909      1.155346   2.961563
    22    6 C       0.426482      1.113807   2.459711
    23    6 C      -0.138108      1.149724   2.988384
    24    6 C      -0.094510      1.142703   2.951807
    25    6 C      -0.004163      1.130256   2.873907
    26    8 O      -0.482253      1.864646   4.617607
    27    6 C      -0.266190      1.179826   3.086364
    28    6 C      -0.269872      1.177568   3.092304
    29    7 N      -0.321763      1.353192   3.968571
    30    6 C      -0.182831      1.170945   3.011886
    31    6 C       0.418519      1.102134   2.479347
    32    6 C      -0.024190      1.129614   2.894576
    33    6 C       0.034035      1.142274   2.823691
    34    8 O      -0.588255      1.859462   4.728793
    35    6 C      -0.123375      1.149304   2.974070
    36    6 C      -0.109866      1.146980   2.962886
    37    7 N      -0.353059      1.368454   3.984606
    38    6 C      -0.134890      1.149748   2.985142
    39    6 C      -0.085862      1.142923   2.942939
    40    6 C      -0.080602      1.153749   2.926854
    41    6 C       0.405531      1.106457   2.488012
    42    6 C       0.058677      1.100767   2.840556
    43    6 C      -0.107163      1.139041   2.968122
    44    8 O      -0.533663      1.854036   4.679627
    45    7 N      -0.339280      1.542629   3.796651
    46    6 C      -0.084184      1.155853   2.928330
    47    6 C       0.075891      1.120602   2.803507
    48    7 N      -0.257129      1.367278   3.889851
    49    6 C      -0.089350      1.135524   2.953826
    50    6 C      -0.264296      1.180030   3.084266
    51    6 C      -0.169406      1.132745   3.036660
    52    6 C      -0.259082      1.151500   3.107582
    53    6 C      -0.110157      1.151548   2.958609
    54    6 C      -0.248560      1.168421   3.080139
    55    6 C      -0.161296      1.159596   3.001701
    56    6 C      -0.250949      1.151690   3.099258
    57    1 H       0.257194      0.742806
    58    1 H       0.144061      0.855939
    59    1 H       0.260171      0.739829
    60    1 H       0.144559      0.855441
    61    1 H       0.122396      0.877604
    62    1 H       0.269618      0.730382
    63    1 H       0.109681      0.890319
    64    1 H       0.111878      0.888122
    65    1 H       0.149098      0.850902
    66    1 H       0.114983      0.885017
    67    1 H       0.108513      0.891487
    68    1 H       0.253660      0.746340
    69    1 H       0.075451      0.924549
    70    1 H       0.101675      0.898325
    71    1 H       0.112264      0.887736
    72    1 H       0.121932      0.878068
    73    1 H       0.085037      0.914963
    74    1 H       0.113324      0.886676
    75    1 H       0.154250      0.845750
    76    1 H       0.123831      0.876169
    77    1 H       0.096458      0.903542
    78    1 H       0.083740      0.916260
    79    1 H       0.101873      0.898127
    80    1 H       0.103164      0.896836
    81    1 H       0.112472      0.887528
    82    1 H       0.305077      0.694923
    83    1 H       0.099345      0.900655
    84    1 H       0.093363      0.906637
    85    1 H       0.123587      0.876413
    86    1 H       0.095824      0.904176
    87    1 H       0.122537      0.877463
    88    1 H       0.280325      0.719675
    89    1 H       0.111204      0.888796
    90    1 H       0.120134      0.879866
    91    1 H       0.088114      0.911886
    92    1 H       0.117083      0.882917
    93    1 H       0.119759      0.880241
    94    1 H       0.131328      0.868672
    95    1 H       0.124997      0.875003
    96    1 H       0.258122      0.741878
    97    1 H       0.100774      0.899226
    98    1 H       0.102400      0.897600
    99    1 H       0.092679      0.907321
   100    1 H       0.059178      0.940822
   101    1 H       0.118398      0.881602
   102    1 H       0.076176      0.923824
   103    1 H       0.080224      0.919776
   104    1 H       0.099048      0.900952
   105    1 H       0.091752      0.908248
   106    1 H       0.124193      0.875807
   107    1 H       0.098443      0.901557
   108    1 H       0.089665      0.910335
   109    1 H       0.072872      0.927128
   110    1 H       0.087032      0.912968
   111    1 H       0.062969      0.937031
   112    1 H       0.079620      0.920380
   113    1 H       0.093221      0.906779
   114    1 H       0.108740      0.891260
------------------------------------------------------


Wiberg/Mayer (AO) data.
largest (>0.10) Wiberg bond orders for each atom

 ---------------------------------------------------------------------------
     #   Z sym  total        # sym  WBO       # sym  WBO       # sym  WBO
 ---------------------------------------------------------------------------
     1   7 N    3.392 --     7 C    1.315     2 C    0.935    57 O    0.893
                             9 C    0.163
     2   6 C    3.908 --    49 C    0.976     1 N    0.935    58 O    0.928
                             3 C    0.926
     3   6 C    3.899 --     4 C    1.631     5 N    1.276     2 C    0.926
     4   8 C    1.931 --     3 C    1.631     5 N    0.174
     5   7 N    3.380 --     3 C    1.276     6 C    0.947    59 O    0.888
                             4 C    0.174
     6   6 C    3.910 --    53 C    0.972     5 N    0.947    60 O    0.935
                            41 C    0.910
     7   6 C    3.859 --     9 C    1.531     1 N    1.315     8 C    0.920
     8   6 C    3.932 --    10 N    0.968    11 C    0.967    61 O    0.938
                             7 C    0.920
     9   8 C    1.885 --     7 C    1.531     1 N    0.163
    10   7 N    3.366 --    12 C    1.266     8 C    0.968    62 O    0.882
                            15 C    0.152
    11   6 C    3.962 --    13 C    1.012     8 C    0.967    64 O    0.953
                            63 O    0.948
    12   6 C    3.857 --    15 C    1.625    10 N    1.266    14 C    0.890
    13   6 C    3.980 --    17 C    1.475    16 C    1.337    11 C    1.012
                            24 C    0.115
    14   6 C    3.931 --    19 C    0.995    18 N    0.982    65 O    0.931
                            12 C    0.890
    15   8 C    1.898 --    12 C    1.625    10 N    0.152
    16   6 C    3.966 --    20 C    1.510    13 C    1.337    66 O    0.947
                            21 C    0.119
    17   6 C    3.966 --    13 C    1.475    21 C    1.368    67 O    0.956
                            20 C    0.118
    18   7 N    3.251 --    22 C    1.130    14 C    0.982    68 O    0.896
                            26 C    0.139
    19   6 C    3.963 --    23 C    1.003    14 C    0.995    69 O    0.955
                            70 O    0.951
    20   6 C    3.970 --    16 C    1.510    24 C    1.370    71 O    0.950
                            17 C    0.118
    21   6 C    3.966 --    24 C    1.501    17 C    1.368    72 O    0.953
                            16 C    0.119
    22   6 C    3.859 --    26 C    1.723    18 N    1.130    25 C    0.930
    23   6 C    3.972 --    19 C    1.003    28 C    0.997    27 C    0.992
                            73 O    0.951
    24   6 C    3.968 --    21 C    1.501    20 C    1.370    74 O    0.952
                            13 C    0.115
    25   6 C    3.934 --    29 N    0.986    30 C    0.964    22 C    0.930
                            75 O    0.921
    26   8 C    1.985 --    22 C    1.723    18 N    0.139
    27   6 C    3.948 --    23 C    0.992    77 O    0.974    78 O    0.970
                            76 O    0.963
    28   6 C    3.952 --    23 C    0.997    79 O    0.977    80 O    0.973
                            81 O    0.964
    29   7 N    3.378 --    31 C    1.285    25 C    0.986    82 O    0.831
                            34 C    0.160
    30   6 C    3.962 --    32 C    0.994    25 C    0.964    83 O    0.954
                            84 O    0.953
    31   6 C    3.868 --    34 C    1.574    29 N    1.285    33 C    0.938
    32   6 C    3.976 --    35 C    1.450    36 C    1.373    30 C    0.994
                            43 C    0.111
    33   6 C    3.915 --    38 C    0.968    37 N    0.946    31 C    0.938
                            85 O    0.928
    34   8 C    1.871 --    31 C    1.574    29 N    0.160
    35   6 C    3.968 --    32 C    1.450    39 C    1.386    86 O    0.949
                            40 C    0.125
    36   6 C    3.966 --    40 C    1.468    32 C    1.373    87 O    0.947
                            39 C    0.117
    37   7 N    3.310 --    41 C    1.236    33 C    0.946    88 O    0.861
                            44 C    0.170
    38   6 C    3.952 --    42 C    1.004    33 C    0.968    89 O    0.947
                            90 O    0.928
    39   6 C    3.972 --    43 C    1.491    35 C    1.386    91 O    0.950
                            36 C    0.117
    40   6 C    3.965 --    36 C    1.468    43 C    1.387    92 O    0.951
                            35 C    0.125
    41   6 C    3.879 --    44 C    1.667    37 N    1.236     6 C    0.910
    42   6 C    3.957 --    46 C    1.593    45 N    1.233    38 C    1.004
    43   6 C    3.971 --    39 C    1.491    40 C    1.387    93 O    0.951
                            32 C    0.111
    44   8 C    1.947 --    41 C    1.667    37 N    0.170
    45   7 N    3.009 --    47 C    1.571    42 C    1.233    48 N    0.105
    46   6 C    3.880 --    42 C    1.593    48 N    1.138    94 O    0.943
                            47 C    0.109
    47   6 C    3.926 --    45 N    1.571    48 N    1.252    95 O    0.946
                            46 C    0.109
    48   7 N    3.483 --    47 C    1.252    46 C    1.138    96 O    0.902
                            45 N    0.105
    49   6 C    3.972 --    51 C    0.994    50 C    0.989     2 C    0.976
                            97 O    0.947
    50   6 C    3.956 --    49 C    0.989    99 O    0.976   100 O    0.976
                            98 O    0.971
    51   6 C    3.965 --    52 C    1.034    49 C    0.994   102 O    0.958
                           101 O    0.947
    52   6 C    3.963 --    51 C    1.034   104 O    0.972   103 O    0.970
                           105 O    0.966
    53   6 C    3.963 --    54 C    1.010    55 C    0.975     6 C    0.972
                           106 O    0.942
    54   6 C    3.960 --    53 C    1.010   109 O    0.972   107 O    0.971
                           108 O    0.969
    55   6 C    3.967 --    56 C    1.038    53 C    0.975   111 O    0.962
                           110 O    0.951
    56   6 C    3.964 --    55 C    1.038   113 O    0.969   112 O    0.968
                           114 O    0.965
    57   1 O    0.934 --     1 N    0.893
    58   1 O    0.979 --     2 C    0.928
    59   1 O    0.932 --     5 N    0.888
    60   1 O    0.979 --     6 C    0.935
    61   1 O    0.985 --     8 C    0.938
    62   1 O    0.927 --    10 N    0.882
    63   1 O    0.988 --    11 C    0.948
    64   1 O    0.987 --    11 C    0.953
    65   1 O    0.978 --    14 C    0.931
    66   1 O    0.987 --    16 C    0.947
    67   1 O    0.988 --    17 C    0.956
    68   1 O    0.936 --    18 N    0.896
    69   1 O    0.994 --    19 C    0.955
    70   1 O    0.990 --    19 C    0.951
    71   1 O    0.987 --    20 C    0.950
    72   1 O    0.985 --    21 C    0.953
    73   1 O    0.993 --    23 C    0.951
    74   1 O    0.987 --    24 C    0.952
    75   1 O    0.976 --    25 C    0.921
    76   1 O    0.985 --    27 C    0.963
    77   1 O    0.991 --    27 C    0.974
    78   1 O    0.993 --    27 C    0.970
    79   1 O    0.990 --    28 C    0.977
    80   1 O    0.989 --    28 C    0.973
    81   1 O    0.987 --    28 C    0.964
    82   1 O    0.907 --    29 N    0.831
    83   1 O    0.990 --    30 C    0.954
    84   1 O    0.991 --    30 C    0.953
    85   1 O    0.985 --    33 C    0.928
    86   1 O    0.991 --    35 C    0.949
    87   1 O    0.985 --    36 C    0.947
    88   1 O    0.921 --    37 N    0.861
    89   1 O    0.988 --    38 C    0.947
    90   1 O    0.986 --    38 C    0.928
    91   1 O    0.992 --    39 C    0.950
    92   1 O    0.986 --    40 C    0.951
    93   1 O    0.986 --    43 C    0.951
    94   1 O    0.983 --    46 C    0.943
    95   1 O    0.984 --    47 C    0.946
    96   1 O    0.933 --    48 N    0.902
    97   1 O    0.990 --    49 C    0.947
    98   1 O    0.990 --    50 C    0.971
    99   1 O    0.991 --    50 C    0.976
   100   1 O    0.996 --    50 C    0.976
   101   1 O    0.986 --    51 C    0.947
   102   1 O    0.994 --    51 C    0.958
   103   1 O    0.994 --    52 C    0.970
   104   1 O    0.990 --    52 C    0.972
   105   1 O    0.992 --    52 C    0.966
   106   1 O    0.985 --    53 C    0.942
   107   1 O    0.990 --    54 C    0.971
   108   1 O    0.992 --    54 C    0.969
   109   1 O    0.995 --    54 C    0.972
   110   1 O    0.992 --    55 C    0.951
   111   1 O    0.996 --    55 C    0.962
   112   1 O    0.994 --    56 C    0.968
   113   1 O    0.991 --    56 C    0.969
   114   1 O    0.988 --    56 C    0.965
 ---------------------------------------------------------------------------

Topologies differ in total number of bonds
Writing topology from bond orders to xtbtopo.mol

Atomic dipole moments (in atomic units):
---------------------------------------------------------
     #    Z                 x            y            z
---------------------------------------------------------
           total    -3.028203     2.030152    -3.882629
---------------------------------------------------------
         |total|     5.326006    13.537356 Debye


           -------------------------------------------------
          | TOTAL ENERGY            -2524.680428181961 Eh   |
          | GRADIENT NORM               0.400637452957 Eh/α |
           -------------------------------------------------

------------------------------------------------------------------------
 * finished run on 2026/05/23 at 12:28:54.343     
------------------------------------------------------------------------
 total:
 * wall-time:     0 d,  0 h,  0 min, 21.387 sec
 *  cpu-time:     0 d,  0 h,  0 min, 37.565 sec
 * ratio c/w:     1.756 speedup
 SCF:
 * wall-time:     0 d,  0 h,  0 min, 20.637 sec
 *  cpu-time:     0 d,  0 h,  0 min, 36.764 sec
 * ratio c/w:     1.781 speedup

normal termination of xtb
