      -----------------------------------------------------------      
     |                   =====================                   |     
     |                           x T B                           |     
     |                   =====================                   |     
     |                         S. Grimme                         |     
     |          Mulliken Center for Theoretical Chemistry        |     
     |                    University of Bonn                     |     
      -----------------------------------------------------------      

   * xtb version 6.7.1 (edcfbbe) compiled by 'albert@albert-system' on 2024-07-22

   xtb is free software: you can redistribute it and/or modify it under
   the terms of the GNU Lesser General Public License as published by
   the Free Software Foundation, either version 3 of the License, or
   (at your option) any later version.
   
   xtb is distributed in the hope that it will be useful,
   but WITHOUT ANY WARRANTY; without even the implied warranty of
   MERCHANTABILITY or FITNESS FOR A PARTICULAR PURPOSE.  See the
   GNU Lesser General Public License for more details.
   
   Cite this work as:
   * C. Bannwarth, E. Caldeweyher, S. Ehlert, A. Hansen, P. Pracht,
     J. Seibert, S. Spicher, S. Grimme, WIREs Comput. Mol. Sci., 2020, 11,
     e01493. DOI: 10.1002/wcms.1493
   
   for GFN2-xTB:
   * C. Bannwarth, S. Ehlert and S. Grimme., J. Chem. Theory Comput., 2019,
     15, 1652-1671. DOI: 10.1021/acs.jctc.8b01176
   for GFN1-xTB:
   * S. Grimme, C. Bannwarth, P. Shushkov, J. Chem. Theory Comput., 2017,
     13, 1989-2009. DOI: 10.1021/acs.jctc.7b00118
   for GFN0-xTB:
   * P. Pracht, E. Caldeweyher, S. Ehlert, S. Grimme, ChemRxiv, 2019, preprint.
     DOI: 10.26434/chemrxiv.8326202.v1
   for GFN-FF:
   * S. Spicher and S. Grimme, Angew. Chem. Int. Ed., 2020, 59, 15665-15673.
     DOI: 10.1002/anie.202004239
   
   for ALPB and GBSA implicit solvation:
   * S. Ehlert, M. Stahn, S. Spicher, S. Grimme, J. Chem. Theory Comput.,
     2021, 17, 4250-4261. DOI: 10.1021/acs.jctc.1c00471
   
   for ddCOSMO and CPCM-X implicit solvation:
   * M. Stahn, S. Ehlert, S. Grimme, J. Phys. Chem. A,
     2023, XX, XXXX-XXXX. DOI: 10.1021/acs.jpca.3c04382
   
   for DFT-D4:
   * E. Caldeweyher, C. Bannwarth and S. Grimme, J. Chem. Phys., 2017,
     147, 034112. DOI: 10.1063/1.4993215
   * E. Caldeweyher, S. Ehlert, A. Hansen, H. Neugebauer, S. Spicher,
     C. Bannwarth and S. Grimme, J. Chem. Phys., 2019, 150, 154122.
     DOI: 10.1063/1.5090222
   * E. Caldeweyher, J.-M. Mewes, S. Ehlert and S. Grimme, Phys. Chem. Chem. Phys.
     2020, 22, 8499-8512. DOI: 10.1039/D0CP00502A
   
   for sTDA-xTB:
   * S. Grimme and C. Bannwarth, J. Chem. Phys., 2016, 145, 054103.
     DOI: 10.1063/1.4959605
   
   in the mass-spec context:
   * V. Asgeirsson, C. Bauer and S. Grimme, Chem. Sci., 2017, 8, 4879.
     DOI: 10.1039/c7sc00601b
   * J. Koopman and S. Grimme, ACS Omega 2019, 4, 12, 15120-15133.
     DOI: 10.1021/acsomega.9b02011
   
   for metadynamics refer to:
   * S. Grimme, J. Chem. Theory Comput., 2019, 155, 2847-2862
     DOI: 10.1021/acs.jctc.9b00143
   
   for SPH calculations refer to:
   * S. Spicher and S. Grimme, J. Chem. Theory Comput., 2021, 17, 1701-1714
     DOI: 10.1021/acs.jctc.0c01306
   
   for ONIOM refer to:
   * C. Plett, A. Katbashev, S. Ehlert, S. Grimme, M. Bursch,
     Phys. Chem. Chem. Phys., 2023, 25, 17860-17868. DOI: 10.1039/D3CP02178E
   
   for DIPRO refer to:
   * J. Kohn, N. Gildemeister, S. Grimme, D. Fazzi, A. Hansen,
     J. Chem. Phys., 2023, just accepted.
   
   for PTB refer to:
   * S. Grimme, M. Mueller, A. Hansen, J. Chem. Phys., 2023, 158, 124111.
     DOI: 10.1063/5.0137838
   
   with help from (in alphabetical order)
   P. Atkinson, C. Bannwarth, F. Bohle, G. Brandenburg, E. Caldeweyher
   M. Checinski, S. Dohm, S. Ehlert, S. Ehrlich, I. Gerasimov, C. Hölzer
   A. Katbashev, J. Kohn, J. Koopman, C. Lavigne, S. Lehtola, F. März, M. Müller,
   F. Musil, H. Neugebauer, J. Pisarek, C. Plett, P. Pracht, F. Pultar,
   J. Seibert, P. Shushkov, S. Spicher, M. Stahn, M. Steiner, T. Strunk,
   J. Stückrath, T. Rose, and J. Unsleber
   
 * started run on 2026/05/23 at 12:34:09.885     
   ID    Z sym.   atoms
    1    7 N      1, 5, 10, 17, 23, 25, 28, 34, 41, 46, 50
    2    6 C      2, 3, 6-8, 11-15, 18-21, 24, 26, 27, 29-32, 35-38, 40,
                  42-45, 48, 49, 51-53
    3    8 O      4, 9, 16, 22, 33, 39, 47
    4    1 H      54-110

           -------------------------------------------------
          |                Calculation Setup                |
           -------------------------------------------------

          program call               : /home/xchen/software/xtb-6.7.1/xtb-dist/bin/xtb /home/xchen/Test/benchmark/md_sampled/07_7_0083_0/snap_0049.xyz --charge 0 --gfn 2 --norestart
          coordinate file            : /home/xchen/Test/benchmark/md_sampled/07_7_0083_0/snap_0049.xyz
          omp threads                :                    48


           -------------------------------------------------
          |                 G F N 2 - x T B                 |
           -------------------------------------------------

        Reference                      10.1021/acs.jctc.8b01176
      * Hamiltonian:
        H0-scaling (s, p, d)           1.850000    2.230000    2.230000
        zeta-weighting                 0.500000
      * Dispersion:
        s8                             2.700000
        a1                             0.520000
        a2                             5.000000
        s9                             5.000000
      * Repulsion:
        kExp                           1.500000    1.000000
        rExp                           1.000000
      * Coulomb:
        alpha                          2.000000
        third order                    shell-resolved
        anisotropic                    true
        a3                             3.000000
        a5                             4.000000
        cn-shift                       1.200000
        cn-exp                         4.000000
        max-rad                        5.000000


          ...................................................
          :                      SETUP                      :
          :.................................................:
          :  # basis functions                 269          :
          :  # atomic orbitals                 269          :
          :  # shells                          163          :
          :  # electrons                       294          :
          :  max. iterations                   250          :
          :  Hamiltonian                  GFN2-xTB          :
          :  restarted?                      false          :
          :  GBSA solvation                  false          :
          :  PC potential                    false          :
          :  electronic temp.          300.0000000     K    :
          :  accuracy                    1.0000000          :
          :  -> integral cutoff          0.2500000E+02      :
          :  -> integral neglect         0.1000000E-07      :
          :  -> SCF convergence          0.1000000E-05 Eh   :
          :  -> wf. convergence          0.1000000E-03 e    :
          :  Broyden damping             0.4000000          :
          :  net charge                          0          :
          :  unpaired electrons                  0          :
          ...................................................

 iter      E             dE          RMSdq      gap      omega  full diag
   1   -166.0593438 -0.166059E+03  0.378E+00    3.80       0.0  T
   2   -166.4905902 -0.431246E+00  0.215E+00    3.31       1.0  T
   3   -166.5168417 -0.262515E-01  0.118E+00    3.25       1.0  T
   4   -166.5185655 -0.172378E-02  0.336E-01    2.73       1.0  T
   5   -166.5278908 -0.932536E-02  0.998E-02    2.73       1.0  T
   6   -166.5280994 -0.208574E-03  0.497E-02    2.74       1.0  T
   7   -166.5281595 -0.601603E-04  0.219E-02    2.74       1.0  T
   8   -166.5281679 -0.840069E-05  0.585E-03    2.75       1.6  T
   9   -166.5281685 -0.577413E-06  0.294E-03    2.74       3.2  T
  10   -166.5281687 -0.179474E-06  0.114E-03    2.74       8.4  T
  11   -166.5281687 -0.383095E-07  0.473E-04    2.74      20.2  T
  12   -166.5281688 -0.761457E-08  0.152E-04    2.74      62.9  T

   *** convergence criteria satisfied after 12 iterations ***

         #    Occupation            Energy/Eh            Energy/eV
      -------------------------------------------------------------
         1        2.0000           -0.7257771             -19.7494
       ...           ...                  ...                  ...
       141        2.0000           -0.3879631             -10.5570
       142        2.0000           -0.3818715             -10.3913
       143        2.0000           -0.3699036             -10.0656
       144        2.0000           -0.3676160             -10.0033
       145        2.0000           -0.3664908              -9.9727
       146        2.0000           -0.3540350              -9.6338
       147        2.0000           -0.3465285              -9.4295 (HOMO)
       148                         -0.2457324              -6.6867 (LUMO)
       149                         -0.2288141              -6.2263
       150                         -0.2224186              -6.0523
       151                         -0.2202805              -5.9941
       152                         -0.2150604              -5.8521
       ...                                ...                  ...
       269                          0.7212508              19.6262
      -------------------------------------------------------------
                  HL-Gap            0.1007961 Eh            2.7428 eV
             Fermi-level           -0.2961304 Eh           -8.0581 eV

 SCC (total)                   0 d,  0 h,  0 min, 12.688 sec
 SCC setup                      ...        0 min,  0.023 sec (  0.185%)
 Dispersion                     ...        0 min,  0.099 sec (  0.777%)
 classical contributions        ...        0 min,  0.017 sec (  0.136%)
 integral evaluation            ...        0 min,  0.437 sec (  3.446%)
 iterations                     ...        0 min, 11.129 sec ( 87.711%)
 molecular gradient             ...        0 min,  0.968 sec (  7.627%)
 printout                       ...        0 min,  0.015 sec (  0.115%)

         :::::::::::::::::::::::::::::::::::::::::::::::::::::
         ::                     SUMMARY                     ::
         :::::::::::::::::::::::::::::::::::::::::::::::::::::
         :: total energy            -164.591838696903 Eh    ::
         :: gradient norm              0.344358128356 Eh/a0 ::
         :: HOMO-LUMO gap              2.742801514990 eV    ::
         ::.................................................::
         :: SCC energy              -166.521378565540 Eh    ::
         :: -> isotropic ES            0.298582460825 Eh    ::
         :: -> anisotropic ES          0.018113973594 Eh    ::
         :: -> anisotropic XC          0.070198511429 Eh    ::
         :: -> dispersion             -0.128599433498 Eh    ::
         :: repulsion energy           1.929539868637 Eh    ::
         :: add. restraining           0.000000000000 Eh    ::
         :: total charge              -0.000000000000 e     ::
         :::::::::::::::::::::::::::::::::::::::::::::::::::::

           -------------------------------------------------
          |                Property Printout                |
           -------------------------------------------------

    * Orbital Energies and Occupations

         #    Occupation            Energy/Eh            Energy/eV
      -------------------------------------------------------------
         1        2.0000           -0.7257771             -19.7494
       ...           ...                  ...                  ...
       135        2.0000           -0.4051508             -11.0247
       136        2.0000           -0.4044755             -11.0063
       137        2.0000           -0.4030211             -10.9668
       138        2.0000           -0.3930950             -10.6967
       139        2.0000           -0.3899445             -10.6109
       140        2.0000           -0.3886653             -10.5761
       141        2.0000           -0.3879631             -10.5570
       142        2.0000           -0.3818715             -10.3913
       143        2.0000           -0.3699036             -10.0656
       144        2.0000           -0.3676160             -10.0033
       145        2.0000           -0.3664908              -9.9727
       146        2.0000           -0.3540350              -9.6338
       147        2.0000           -0.3465285              -9.4295 (HOMO)
       148                         -0.2457324              -6.6867 (LUMO)
       149                         -0.2288141              -6.2263
       150                         -0.2224186              -6.0523
       151                         -0.2202805              -5.9941
       152                         -0.2150604              -5.8521
       153                         -0.2062859              -5.6133
       154                         -0.2014071              -5.4806
       155                         -0.1930246              -5.2525
       156                         -0.1540594              -4.1922
       157                         -0.0739749              -2.0130
       158                         -0.0605263              -1.6470
       ...                                ...                  ...
       269                          0.7212508              19.6262
      -------------------------------------------------------------
                  HL-Gap            0.1007961 Eh            2.7428 eV
             Fermi-level           -0.2961304 Eh           -8.0581 eV

     #   Z          covCN         q      C6AA      α(0)
     1   7 N        2.684    -0.188    25.087     7.439
     2   6 C        3.738    -0.025    21.110     6.556
     3   6 C        2.753     0.283    22.202     7.716
     4   8 O        0.861    -0.430    22.280     6.329
     5   7 N        2.678    -0.163    24.533     7.356
     6   6 C        3.787     0.012    20.390     6.432
     7   6 C        2.745     0.261    22.602     7.784
     8   6 C        3.814     0.002    20.544     6.451
     9   8 O        0.857    -0.428    22.258     6.325
    10   7 N        2.763    -0.125    23.720     7.234
    11   6 C        3.819    -0.059    21.613     6.616
    12   6 C        3.756    -0.003    20.686     6.485
    13   6 C        2.768     0.275    22.344     7.741
    14   6 C        3.837    -0.061    21.648     6.619
    15   6 C        3.756     0.017    20.342     6.431
    16   8 O        0.864    -0.408    21.841     6.266
    17   7 N        2.688    -0.189    25.089     7.439
    18   6 C        3.778    -0.074    21.931     6.672
    19   6 C        2.741     0.287    22.137     7.704
    20   6 C        3.234     0.066    25.700     8.227
    21   6 C        3.782     0.001    20.581     6.462
    22   8 O        0.857    -0.410    21.886     6.272
    23   7 N        1.882    -0.257    27.532     7.778
    24   6 C        3.018    -0.018    28.430     8.746
    25   7 N        2.727    -0.115    23.515     7.202
    26   6 C        3.801    -0.055    21.569     6.612
    27   6 C        3.177     0.089    25.637     8.268
    28   7 N        2.788    -0.101    23.212     7.156
    29   6 C        3.752     0.006    20.540     6.463
    30   6 C        2.769     0.273    22.382     7.748
    31   6 C        3.822    -0.055    21.538     6.604
    32   6 C        3.780     0.012    20.398     6.434
    33   8 O        0.859    -0.450    22.703     6.388
    34   7 N        2.700    -0.218    25.759     7.538
    35   6 C        3.805    -0.058    21.617     6.619
    36   6 C        2.764     0.275    22.342     7.741
    37   6 C        3.796    -0.044    21.361     6.581
    38   6 C        3.803     0.018    20.275     6.410
    39   8 O        0.859    -0.417    22.020     6.291
    40   6 C        3.789    -0.061    21.683     6.632
    41   7 N        2.685    -0.182    24.933     7.416
    42   6 C        3.812    -0.075    21.921     6.664
    43   6 C        3.730     0.009    20.512     6.465
    44   6 C        2.757     0.267    22.486     7.765
    45   6 C        3.770    -0.073    21.940     6.675
    46   7 N        2.627    -0.342    28.812     7.972
    47   8 O        0.858    -0.447    22.652     6.381
    48   6 C        3.783    -0.072    21.888     6.664
    49   6 C        3.722     0.028    20.216     6.421
    50   7 N        2.634    -0.346    28.910     7.986
    51   6 C        3.834    -0.025    21.001     6.520
    52   6 C        3.730    -0.113    22.758     6.810
    53   6 C        3.754    -0.117    22.793     6.808
    54   1 H        0.860     0.184     1.192     1.710
    55   1 H        0.920     0.088     1.898     2.155
    56   1 H        0.928     0.060     2.196     2.317
    57   1 H        0.858     0.184     1.193     1.711
    58   1 H        0.920     0.057     2.237     2.339
    59   1 H        0.918     0.071     2.080     2.256
    60   1 H        0.924     0.059     2.207     2.323
    61   1 H        0.924     0.054     2.270     2.356
    62   1 H        0.918     0.080     1.983     2.203
    63   1 H        0.915     0.042     2.420     2.433
    64   1 H        0.926     0.046     2.374     2.409
    65   1 H        0.922     0.044     2.392     2.419
    66   1 H        0.897     0.052     2.297     2.371
    67   1 H        0.862     0.209     1.059     1.612
    68   1 H        0.911     0.065     2.147     2.292
    69   1 H        0.923     0.089     1.889     2.150
    70   1 H        0.921     0.068     2.108     2.271
    71   1 H        0.925     0.029     2.604     2.524
    72   1 H        0.925     0.064     2.154     2.295
    73   1 H        0.922     0.051     2.314     2.379
    74   1 H        0.924     0.029     2.604     2.523
    75   1 H        0.846     0.148     1.418     1.867
    76   1 H        0.921     0.042     2.417     2.431
    77   1 H        0.924     0.060     2.198     2.319
    78   1 H        0.920     0.042     2.421     2.433
    79   1 H        0.928     0.056     2.246     2.343
    80   1 H        0.929     0.079     1.993     2.208
    81   1 H        0.861     0.185     1.183     1.704
    82   1 H        0.924     0.038     2.476     2.461
    83   1 H        0.923     0.056     2.243     2.342
    84   1 H        0.910     0.021     2.717     2.579
    85   1 H        0.927     0.033     2.539     2.492
    86   1 H        0.926     0.112     1.678     2.025
    87   1 H        0.912     0.017     2.775     2.606
    88   1 H        0.918     0.024     2.675     2.558
    89   1 H        0.861     0.185     1.188     1.707
    90   1 H        0.926     0.057     2.234     2.337
    91   1 H        0.923     0.052     2.296     2.370
    92   1 H        0.928     0.063     2.160     2.298
    93   1 H        0.921     0.034     2.529     2.487
    94   1 H        0.926     0.058     2.223     2.332
    95   1 H        0.923     0.042     2.426     2.436
    96   1 H        0.861     0.133     1.525     1.935
    97   1 H        0.859     0.129     1.555     1.953
    98   1 H        0.924     0.046     2.372     2.408
    99   1 H        0.926     0.033     2.544     2.494
   100   1 H        0.922     0.017     2.777     2.606
   101   1 H        0.919     0.002     3.027     2.721
   102   1 H        0.861     0.157     1.357     1.825
   103   1 H        0.859     0.143     1.448     1.885
   104   1 H        0.925     0.036     2.497     2.471
   105   1 H        0.923     0.059     2.210     2.325
   106   1 H        0.920     0.055     2.259     2.351
   107   1 H        0.920     0.034     2.533     2.489
   108   1 H        0.921     0.052     2.291     2.367
   109   1 H        0.924     0.039     2.465     2.455
   110   1 H        0.929     0.058     2.223     2.332

 Mol. C6AA /au·bohr⁶  :     112039.700570
 Mol. C8AA /au·bohr⁸  :    2483130.809527
 Mol. α(0) /au        :        500.318722


Wiberg/Mayer (AO) data.
largest (>0.10) Wiberg bond orders for each atom

 ---------------------------------------------------------------------------
     #   Z sym  total        # sym  WBO       # sym  WBO       # sym  WBO
 ---------------------------------------------------------------------------
     1   7 N    3.412 --     7 C    1.248     2 C    0.981    54 H    0.916
                             9 O    0.192
     2   6 C    3.960 --     1 N    0.981    56 H    0.967    55 H    0.956
                             3 C    0.939
     3   6 C    3.952 --     4 O    1.681     5 N    1.273     2 C    0.939
     4   8 O    2.023 --     3 C    1.681     5 N    0.195
     5   7 N    3.443 --     3 C    1.273     6 C    0.969    57 H    0.937
                             4 O    0.195
     6   6 C    3.949 --     5 N    0.969    51 C    0.961    58 H    0.943
                            44 C    0.930
     7   6 C    3.952 --     9 O    1.695     1 N    1.248     8 C    0.930
     8   6 C    3.964 --    10 N    0.979    11 C    0.960    59 H    0.946
                             7 C    0.930
     9   8 O    2.008 --     7 C    1.695     1 N    0.192
    10   7 N    3.470 --    13 C    1.201    12 C    0.981     8 C    0.979
                            16 O    0.191
    11   6 C    3.989 --    14 C    1.019    61 H    0.975    60 H    0.974
                             8 C    0.960
    12   6 C    3.963 --    14 C    0.984    10 N    0.981    62 H    0.967
                            63 H    0.966
    13   6 C    3.957 --    16 O    1.704    10 N    1.201    15 C    0.974
    14   6 C    3.993 --    11 C    1.019    12 C    0.984    65 H    0.978
                            64 H    0.977
    15   6 C    3.962 --    13 C    0.974    17 N    0.973    18 C    0.944
                            66 H    0.936
    16   8 O    2.033 --    13 C    1.704    10 N    0.191
    17   7 N    3.415 --    19 C    1.255    15 C    0.973    67 H    0.915
                            22 O    0.182
    18   6 C    3.982 --    20 C    1.017    69 H    0.971    68 H    0.959
                            15 C    0.944
    19   6 C    3.950 --    22 O    1.721    17 N    1.255    21 C    0.912
    20   6 C    3.975 --    24 C    1.598    23 N    1.229    18 C    1.017
    21   6 C    3.951 --    26 C    0.984    70 H    0.954    25 N    0.934
                            19 C    0.912
    22   8 O    2.033 --    19 C    1.721    17 N    0.182
    23   7 N    3.025 --    27 C    1.583    20 C    1.229    28 N    0.119
    24   6 C    3.934 --    20 C    1.598    28 N    1.177    71 H    0.968
                            27 C    0.109
    25   7 N    3.479 --    30 C    1.281    29 C    0.970    21 C    0.934
                            33 O    0.202
    26   6 C    3.988 --    31 C    1.006    21 C    0.984    73 H    0.976
                            72 H    0.975
    27   6 C    3.957 --    23 N    1.583    28 N    1.249    74 H    0.965
                            24 C    0.109
    28   7 N    3.566 --    27 C    1.249    24 C    1.177    75 H    0.939
                            23 N    0.119
    29   6 C    3.967 --    31 C    1.014    25 N    0.970    76 H    0.966
                            77 H    0.963
    30   6 C    3.956 --    33 O    1.650    25 N    1.281    32 C    0.933
    31   6 C    3.994 --    29 C    1.014    26 C    1.006    78 H    0.974
                            79 H    0.973
    32   6 C    3.951 --    35 C    0.972    80 H    0.964    34 N    0.938
                            30 C    0.933
    33   8 O    2.001 --    30 C    1.650    25 N    0.202
    34   7 N    3.396 --    36 C    1.226    32 C    0.938    81 H    0.933
                            39 O    0.192
    35   6 C    3.991 --    37 C    1.020    32 C    0.972    82 H    0.970
                            83 H    0.964
    36   6 C    3.948 --    39 O    1.714    34 N    1.226    38 C    0.920
    37   6 C    3.997 --    35 C    1.020    40 C    1.014    85 H    0.972
                            84 H    0.964
    38   6 C    3.948 --    42 C    0.981    41 N    0.978    86 H    0.939
                            36 C    0.920
    39   8 O    2.031 --    36 C    1.714    34 N    0.192
    40   6 C    3.994 --    37 C    1.014    43 C    0.983    87 H    0.976
                            88 H    0.972
    41   7 N    3.458 --    44 C    1.278    38 C    0.978    89 H    0.923
                            47 O    0.194
    42   6 C    3.988 --    45 C    0.992    38 C    0.981    91 H    0.973
                            90 H    0.969
    43   6 C    3.980 --    46 N    1.027    40 C    0.983    93 H    0.974
                            92 H    0.973
    44   6 C    3.956 --    47 O    1.664    41 N    1.278     6 C    0.930
    45   6 C    3.988 --    48 C    0.994    42 C    0.992    95 H    0.983
                            94 H    0.980
    46   7 N    3.015 --    43 C    1.027    96 H    0.967    97 H    0.967
    47   8 O    1.991 --    44 C    1.664    41 N    0.194
    48   6 C    3.992 --    49 C    1.004    45 C    0.994    99 H    0.980
                            98 H    0.973
    49   6 C    3.989 --    50 N    1.035    48 C    1.004   101 H    0.971
                           100 H    0.965
    50   7 N    3.013 --    49 C    1.035   103 H    0.968   102 H    0.957
    51   6 C    3.985 --    53 C    1.013    52 C    0.995     6 C    0.961
                           104 H    0.958
    52   6 C    3.986 --    51 C    0.995   107 H    0.989   105 H    0.984
                           106 H    0.981
    53   6 C    3.992 --    51 C    1.013   110 H    0.985   109 H    0.983
                           108 H    0.982
    54   1 H    0.966 --     1 N    0.916
    55   1 H    0.992 --     2 C    0.956
    56   1 H    0.996 --     2 C    0.967
    57   1 H    0.966 --     5 N    0.937
    58   1 H    0.996 --     6 C    0.943
    59   1 H    0.995 --     8 C    0.946
    60   1 H    0.996 --    11 C    0.974
    61   1 H    0.997 --    11 C    0.975
    62   1 H    0.993 --    12 C    0.967
    63   1 H    0.998 --    12 C    0.966
    64   1 H    0.998 --    14 C    0.977
    65   1 H    0.998 --    14 C    0.978
    66   1 H    0.997 --    15 C    0.936
    67   1 H    0.956 --    17 N    0.915
    68   1 H    0.995 --    18 C    0.959
    69   1 H    0.992 --    18 C    0.971
    70   1 H    0.995 --    21 C    0.954
    71   1 H    0.999 --    24 C    0.968
    72   1 H    0.996 --    26 C    0.975
    73   1 H    0.997 --    26 C    0.976
    74   1 H    0.999 --    27 C    0.965
    75   1 H    0.978 --    28 N    0.939
    76   1 H    0.998 --    29 C    0.966
    77   1 H    0.996 --    29 C    0.963
    78   1 H    0.998 --    31 C    0.974
    79   1 H    0.996 --    31 C    0.973
    80   1 H    0.994 --    32 C    0.964
    81   1 H    0.966 --    34 N    0.933
    82   1 H    0.998 --    35 C    0.970
    83   1 H    0.997 --    35 C    0.964
    84   1 H    0.998 --    37 C    0.964
    85   1 H    0.999 --    37 C    0.972
    86   1 H    0.987 --    38 C    0.939
    87   1 H    1.000 --    40 C    0.976
    88   1 H    0.999 --    40 C    0.972
    89   1 H    0.966 --    41 N    0.923
    90   1 H    0.996 --    42 C    0.969
    91   1 H    0.997 --    42 C    0.973
    92   1 H    0.996 --    43 C    0.973
    93   1 H    0.999 --    43 C    0.974
    94   1 H    0.997 --    45 C    0.980
    95   1 H    0.998 --    45 C    0.983
    96   1 H    0.982 --    46 N    0.967
    97   1 H    0.983 --    46 N    0.967
    98   1 H    0.998 --    48 C    0.973
    99   1 H    0.999 --    48 C    0.980
   100   1 H    1.000 --    49 C    0.965
   101   1 H    1.000 --    49 C    0.971
   102   1 H    0.975 --    50 N    0.957
   103   1 H    0.979 --    50 N    0.968
   104   1 H    0.998 --    51 C    0.958
   105   1 H    0.996 --    52 C    0.984
   106   1 H    0.997 --    52 C    0.981
   107   1 H    0.999 --    52 C    0.989
   108   1 H    0.997 --    53 C    0.982
   109   1 H    0.998 --    53 C    0.983
   110   1 H    0.997 --    53 C    0.985
 ---------------------------------------------------------------------------

Topologies differ in total number of bonds
Writing topology from bond orders to xtbtopo.mol

molecular dipole:
                 x           y           z       tot (Debye)
 q only:       -0.018      -2.328       1.146
   full:        0.214      -2.405       1.055       6.698
molecular quadrupole (traceless):
                xx          xy          yy          xz          yz          zz
 q only:       29.254     -17.077       6.149      -5.028      -5.876     -35.403
  q+dip:       41.078     -21.466       4.504      -2.806      -3.908     -45.582
   full:       41.708     -23.557       4.487      -2.755      -3.352     -46.195


           -------------------------------------------------
          | TOTAL ENERGY             -164.591838696903 Eh   |
          | GRADIENT NORM               0.344358128356 Eh/α |
          | HOMO-LUMO GAP               2.742801514990 eV   |
           -------------------------------------------------

------------------------------------------------------------------------
 * finished run on 2026/05/23 at 12:34:23.462     
------------------------------------------------------------------------
 total:
 * wall-time:     0 d,  0 h,  0 min, 13.576 sec
 *  cpu-time:     0 d,  0 h,  0 min, 23.124 sec
 * ratio c/w:     1.703 speedup
 SCF:
 * wall-time:     0 d,  0 h,  0 min, 12.690 sec
 *  cpu-time:     0 d,  0 h,  0 min, 21.823 sec
 * ratio c/w:     1.720 speedup

normal termination of xtb
