      -----------------------------------------------------------      
     |                   =====================                   |     
     |                           x T B                           |     
     |                   =====================                   |     
     |                         S. Grimme                         |     
     |          Mulliken Center for Theoretical Chemistry        |     
     |                    University of Bonn                     |     
      -----------------------------------------------------------      

   * xtb version 6.7.1 (edcfbbe) compiled by 'albert@albert-system' on 2024-07-22

   xtb is free software: you can redistribute it and/or modify it under
   the terms of the GNU Lesser General Public License as published by
   the Free Software Foundation, either version 3 of the License, or
   (at your option) any later version.
   
   xtb is distributed in the hope that it will be useful,
   but WITHOUT ANY WARRANTY; without even the implied warranty of
   MERCHANTABILITY or FITNESS FOR A PARTICULAR PURPOSE.  See the
   GNU Lesser General Public License for more details.
   
   Cite this work as:
   * C. Bannwarth, E. Caldeweyher, S. Ehlert, A. Hansen, P. Pracht,
     J. Seibert, S. Spicher, S. Grimme, WIREs Comput. Mol. Sci., 2020, 11,
     e01493. DOI: 10.1002/wcms.1493
   
   for GFN2-xTB:
   * C. Bannwarth, S. Ehlert and S. Grimme., J. Chem. Theory Comput., 2019,
     15, 1652-1671. DOI: 10.1021/acs.jctc.8b01176
   for GFN1-xTB:
   * S. Grimme, C. Bannwarth, P. Shushkov, J. Chem. Theory Comput., 2017,
     13, 1989-2009. DOI: 10.1021/acs.jctc.7b00118
   for GFN0-xTB:
   * P. Pracht, E. Caldeweyher, S. Ehlert, S. Grimme, ChemRxiv, 2019, preprint.
     DOI: 10.26434/chemrxiv.8326202.v1
   for GFN-FF:
   * S. Spicher and S. Grimme, Angew. Chem. Int. Ed., 2020, 59, 15665-15673.
     DOI: 10.1002/anie.202004239
   
   for ALPB and GBSA implicit solvation:
   * S. Ehlert, M. Stahn, S. Spicher, S. Grimme, J. Chem. Theory Comput.,
     2021, 17, 4250-4261. DOI: 10.1021/acs.jctc.1c00471
   
   for ddCOSMO and CPCM-X implicit solvation:
   * M. Stahn, S. Ehlert, S. Grimme, J. Phys. Chem. A,
     2023, XX, XXXX-XXXX. DOI: 10.1021/acs.jpca.3c04382
   
   for DFT-D4:
   * E. Caldeweyher, C. Bannwarth and S. Grimme, J. Chem. Phys., 2017,
     147, 034112. DOI: 10.1063/1.4993215
   * E. Caldeweyher, S. Ehlert, A. Hansen, H. Neugebauer, S. Spicher,
     C. Bannwarth and S. Grimme, J. Chem. Phys., 2019, 150, 154122.
     DOI: 10.1063/1.5090222
   * E. Caldeweyher, J.-M. Mewes, S. Ehlert and S. Grimme, Phys. Chem. Chem. Phys.
     2020, 22, 8499-8512. DOI: 10.1039/D0CP00502A
   
   for sTDA-xTB:
   * S. Grimme and C. Bannwarth, J. Chem. Phys., 2016, 145, 054103.
     DOI: 10.1063/1.4959605
   
   in the mass-spec context:
   * V. Asgeirsson, C. Bauer and S. Grimme, Chem. Sci., 2017, 8, 4879.
     DOI: 10.1039/c7sc00601b
   * J. Koopman and S. Grimme, ACS Omega 2019, 4, 12, 15120-15133.
     DOI: 10.1021/acsomega.9b02011
   
   for metadynamics refer to:
   * S. Grimme, J. Chem. Theory Comput., 2019, 155, 2847-2862
     DOI: 10.1021/acs.jctc.9b00143
   
   for SPH calculations refer to:
   * S. Spicher and S. Grimme, J. Chem. Theory Comput., 2021, 17, 1701-1714
     DOI: 10.1021/acs.jctc.0c01306
   
   for ONIOM refer to:
   * C. Plett, A. Katbashev, S. Ehlert, S. Grimme, M. Bursch,
     Phys. Chem. Chem. Phys., 2023, 25, 17860-17868. DOI: 10.1039/D3CP02178E
   
   for DIPRO refer to:
   * J. Kohn, N. Gildemeister, S. Grimme, D. Fazzi, A. Hansen,
     J. Chem. Phys., 2023, just accepted.
   
   for PTB refer to:
   * S. Grimme, M. Mueller, A. Hansen, J. Chem. Phys., 2023, 158, 124111.
     DOI: 10.1063/5.0137838
   
   with help from (in alphabetical order)
   P. Atkinson, C. Bannwarth, F. Bohle, G. Brandenburg, E. Caldeweyher
   M. Checinski, S. Dohm, S. Ehlert, S. Ehrlich, I. Gerasimov, C. Hölzer
   A. Katbashev, J. Kohn, J. Koopman, C. Lavigne, S. Lehtola, F. März, M. Müller,
   F. Musil, H. Neugebauer, J. Pisarek, C. Plett, P. Pracht, F. Pultar,
   J. Seibert, P. Shushkov, S. Spicher, M. Stahn, M. Steiner, T. Strunk,
   J. Stückrath, T. Rose, and J. Unsleber
   
 * started run on 2026/05/23 at 08:17:07.447     
   ID    Z sym.   atoms
    1    7 N      1, 5, 10, 17, 23, 28, 35
    2    6 C      2, 3, 6-8, 11-14, 16, 20, 21, 24-26, 29, 31-34, 36-40
    3    8 O      4, 9, 15, 18, 19, 22, 27, 30
    4    1 H      41-70

           -------------------------------------------------
          |                Calculation Setup                |
           -------------------------------------------------

          program call               : /home/xchen/software/xtb-6.7.1/xtb-dist/bin/xtb /home/xchen/Test/benchmark/md_sampled/01_6_0109_n1/snap_0140.xyz --charge -1 --gfn 2 --norestart
          coordinate file            : /home/xchen/Test/benchmark/md_sampled/01_6_0109_n1/snap_0140.xyz
          omp threads                :                    48


           -------------------------------------------------
          |                 G F N 2 - x T B                 |
           -------------------------------------------------

        Reference                      10.1021/acs.jctc.8b01176
      * Hamiltonian:
        H0-scaling (s, p, d)           1.850000    2.230000    2.230000
        zeta-weighting                 0.500000
      * Dispersion:
        s8                             2.700000
        a1                             0.520000
        a2                             5.000000
        s9                             5.000000
      * Repulsion:
        kExp                           1.500000    1.000000
        rExp                           1.000000
      * Coulomb:
        alpha                          2.000000
        third order                    shell-resolved
        anisotropic                    true
        a3                             3.000000
        a5                             4.000000
        cn-shift                       1.200000
        cn-exp                         4.000000
        max-rad                        5.000000


          ...................................................
          :                      SETUP                      :
          :.................................................:
          :  # basis functions                 190          :
          :  # atomic orbitals                 190          :
          :  # shells                          110          :
          :  # electrons                       214          :
          :  max. iterations                   250          :
          :  Hamiltonian                  GFN2-xTB          :
          :  restarted?                      false          :
          :  GBSA solvation                  false          :
          :  PC potential                    false          :
          :  electronic temp.          300.0000000     K    :
          :  accuracy                    1.0000000          :
          :  -> integral cutoff          0.2500000E+02      :
          :  -> integral neglect         0.1000000E-07      :
          :  -> SCF convergence          0.1000000E-05 Eh   :
          :  -> wf. convergence          0.1000000E-03 e    :
          :  Broyden damping             0.4000000          :
          :  net charge                         -1          :
          :  unpaired electrons                  0          :
          ...................................................

 iter      E             dE          RMSdq      gap      omega  full diag
   1   -123.1234727 -0.123123E+03  0.445E+00    3.17       0.0  T
   2   -123.4775116 -0.354039E+00  0.241E+00    2.22       1.0  T
   3   -123.4966512 -0.191397E-01  0.136E+00    1.05       1.0  T
   4   -122.7277810  0.768870E+00  0.216E+00    0.09       1.0  T
   5   -123.4990212 -0.771240E+00  0.392E-01    0.75       1.0  T
   6   -123.5081236 -0.910238E-02  0.151E-01    0.62       1.0  T
   7   -123.5084439 -0.320247E-03  0.108E-01    0.67       1.0  T
   8   -123.5085423 -0.984745E-04  0.843E-02    0.68       1.0  T
   9   -123.5086274 -0.850749E-04  0.735E-02    0.67       1.0  T
  10   -123.5086866 -0.592411E-04  0.664E-02    0.64       1.0  T
  11   -123.5087276 -0.409892E-04  0.612E-02    0.62       1.0  T
  12   -123.5087767 -0.490305E-04  0.548E-02    0.59       1.0  T
  13   -123.5088544 -0.776985E-04  0.429E-02    0.54       1.0  T
  14   -123.5089796 -0.125212E-03  0.121E-02    0.39       1.0  T
  15   -123.5089911 -0.114804E-04  0.431E-03    0.31       2.8  T
  16   -123.5089931 -0.205794E-05  0.132E-03    0.33       9.1  T
  17   -123.5089932 -0.913045E-07  0.801E-04    0.33      14.9  T
  18   -123.5089932 -0.353465E-07  0.494E-04    0.33      24.2  T

   *** convergence criteria satisfied after 18 iterations ***

         #    Occupation            Energy/Eh            Energy/eV
      -------------------------------------------------------------
         1        2.0000           -0.6623993             -18.0248
       ...           ...                  ...                  ...
       101        2.0000           -0.3209494              -8.7335
       102        2.0000           -0.3173188              -8.6347
       103        2.0000           -0.3083051              -8.3894
       104        2.0000           -0.3060846              -8.3290
       105        2.0000           -0.2316142              -6.3025
       106        2.0000           -0.2223905              -6.0516
       107        1.9966           -0.1949216              -5.3041 (HOMO)
       108        0.0031           -0.1827115              -4.9718 (LUMO)
       109        0.0003           -0.1803519              -4.9076
       110                         -0.1556963              -4.2367
       111                         -0.1540000              -4.1906
       112                         -0.1529912              -4.1631
       ...                                ...                  ...
       190                          0.8954478              24.3664
      -------------------------------------------------------------
                  HL-Gap            0.0122101 Eh            0.3323 eV
             Fermi-level           -0.1888547 Eh           -5.1390 eV

 SCC (total)                   0 d,  0 h,  0 min, 15.797 sec
 SCC setup                      ...        0 min,  0.041 sec (  0.258%)
 Dispersion                     ...        0 min,  0.080 sec (  0.505%)
 classical contributions        ...        0 min,  0.013 sec (  0.082%)
 integral evaluation            ...        0 min,  0.358 sec (  2.269%)
 iterations                     ...        0 min, 14.639 sec ( 92.672%)
 molecular gradient             ...        0 min,  0.651 sec (  4.118%)
 printout                       ...        0 min,  0.015 sec (  0.095%)

         :::::::::::::::::::::::::::::::::::::::::::::::::::::
         ::                     SUMMARY                     ::
         :::::::::::::::::::::::::::::::::::::::::::::::::::::
         :: total energy            -122.053988689806 Eh    ::
         :: gradient norm              0.313852596698 Eh/a0 ::
         :: HOMO-LUMO gap              0.332252809774 eV    ::
         ::.................................................::
         :: SCC energy              -123.507846175171 Eh    ::
         :: -> isotropic ES            0.400112843747 Eh    ::
         :: -> anisotropic ES          0.016403567716 Eh    ::
         :: -> anisotropic XC          0.031120281337 Eh    ::
         :: -> dispersion             -0.081100755525 Eh    ::
         :: repulsion energy           1.453857485365 Eh    ::
         :: add. restraining           0.000000000000 Eh    ::
         :: total charge              -1.000000000000 e     ::
         :::::::::::::::::::::::::::::::::::::::::::::::::::::

           -------------------------------------------------
          |                Property Printout                |
           -------------------------------------------------

    * Orbital Energies and Occupations

         #    Occupation            Energy/Eh            Energy/eV
      -------------------------------------------------------------
         1        2.0000           -0.6623993             -18.0248
       ...           ...                  ...                  ...
        95        2.0000           -0.3334082              -9.0725
        96        2.0000           -0.3311323              -9.0106
        97        2.0000           -0.3309043              -9.0044
        98        2.0000           -0.3280745              -8.9274
        99        2.0000           -0.3276775              -8.9166
       100        2.0000           -0.3216532              -8.7526
       101        2.0000           -0.3209494              -8.7335
       102        2.0000           -0.3173188              -8.6347
       103        2.0000           -0.3083051              -8.3894
       104        2.0000           -0.3060846              -8.3290
       105        2.0000           -0.2316142              -6.3025
       106        2.0000           -0.2223905              -6.0516
       107        1.9966           -0.1949216              -5.3041 (HOMO)
       108        0.0031           -0.1827115              -4.9718 (LUMO)
       109        0.0003           -0.1803519              -4.9076
       110                         -0.1556963              -4.2367
       111                         -0.1540000              -4.1906
       112                         -0.1529912              -4.1631
       113                         -0.1510006              -4.1089
       114                         -0.1474837              -4.0132
       115                         -0.1445080              -3.9323
       116                         -0.1116277              -3.0375
       117                         -0.0192166              -0.5229
       118                         -0.0140989              -0.3837
       ...                                ...                  ...
       190                          0.8954478              24.3664
      -------------------------------------------------------------
                  HL-Gap            0.0122101 Eh            0.3323 eV
             Fermi-level           -0.1888547 Eh           -5.1390 eV

     #   Z          covCN         q      C6AA      α(0)
     1   7 N        2.697    -0.177    24.824     7.400
     2   6 C        3.719    -0.005    20.778     6.511
     3   6 C        2.749     0.279    22.280     7.729
     4   8 O        0.858    -0.417    22.018     6.291
     5   7 N        2.690    -0.202    25.400     7.485
     6   6 C        3.768     0.028    20.138     6.396
     7   6 C        2.768     0.275    22.344     7.741
     8   6 C        3.779     0.021    20.247     6.410
     9   8 O        0.869    -0.461    22.937     6.421
    10   7 N        2.690    -0.195    25.230     7.460
    11   6 C        3.806    -0.062    21.682     6.629
    12   6 C        2.800     0.273    22.390     7.752
    13   6 C        3.804    -0.102    22.451     6.746
    14   6 C        3.734    -0.008    20.811     6.511
    15   8 O        0.857    -0.408    21.834     6.265
    16   6 C        2.678     0.370    20.721     7.449
    17   7 N        2.734    -0.186    25.028     7.430
    18   8 O        0.861    -0.558    25.099     6.717
    19   8 O        0.856    -0.594    25.962     6.831
    20   6 C        2.734     0.251    22.779     7.814
    21   6 C        3.773     0.021    20.250     6.412
    22   8 O        0.859    -0.403    21.735     6.251
    23   7 N        2.690    -0.171    24.704     7.382
    24   6 C        3.750    -0.113    22.722     6.798
    25   6 C        2.749     0.274    22.359     7.743
    26   6 C        3.736    -0.017    20.957     6.533
    27   8 O        0.859    -0.444    22.575     6.370
    28   7 N        2.686    -0.158    24.423     7.340
    29   6 C        2.753     0.273    22.381     7.747
    30   8 O        0.858    -0.439    22.470     6.355
    31   6 C        3.795    -0.059    21.648     6.625
    32   6 C        3.031    -0.007    28.167     8.705
    33   6 C        3.014     0.005    27.899     8.664
    34   6 C        3.113    -0.012    28.151     8.692
    35   7 N        2.745    -0.142    24.070     7.287
    36   6 C        3.099     0.060    26.537     8.442
    37   6 C        2.931    -0.027    28.684     8.783
    38   6 C        2.899    -0.053    29.308     8.876
    39   6 C        2.923    -0.047    29.160     8.855
    40   6 C        2.948    -0.042    29.032     8.837
    41   1 H        0.861     0.196     1.126     1.662
    42   1 H        0.910     0.072     2.066     2.248
    43   1 H        0.889     0.048     2.359     2.404
    44   1 H        0.861     0.185     1.184     1.704
    45   1 H        0.907     0.054     2.268     2.356
    46   1 H        0.921     0.055     2.261     2.352
    47   1 H        0.860     0.180     1.215     1.727
    48   1 H        0.923     0.017     2.779     2.607
    49   1 H        0.926     0.064     2.155     2.296
    50   1 H        0.929     0.021     2.721     2.579
    51   1 H        0.927     0.006     2.955     2.688
    52   1 H        0.908     0.077     2.015     2.220
    53   1 H        0.928     0.063     2.159     2.298
    54   1 H        0.859     0.184     1.189     1.708
    55   1 H        0.925     0.082     1.958     2.188
    56   1 H        0.852     0.169     1.281     1.773
    57   1 H        0.911     0.036     2.505     2.476
    58   1 H        0.926     0.066     2.125     2.280
    59   1 H        0.929     0.067     2.123     2.278
    60   1 H        0.910     0.044     2.404     2.425
    61   1 H        0.926     0.077     2.010     2.217
    62   1 H        0.861     0.201     1.100     1.643
    63   1 H        0.917     0.066     2.126     2.280
    64   1 H        0.920     0.074     2.047     2.238
    65   1 H        0.922     0.030     2.593     2.518
    66   1 H        0.859     0.157     1.354     1.823
    67   1 H        0.923     0.020     2.733     2.585
    68   1 H        0.923     0.024     2.672     2.556
    69   1 H        0.929     0.037     2.487     2.466
    70   1 H        0.911     0.003     3.006     2.712

 Mol. C6AA /au·bohr⁶  :      56294.917609
 Mol. C8AA /au·bohr⁸  :    1292647.566460
 Mol. α(0) /au        :        359.996046


Wiberg/Mayer (AO) data.
largest (>0.10) Wiberg bond orders for each atom

 ---------------------------------------------------------------------------
     #   Z sym  total        # sym  WBO       # sym  WBO       # sym  WBO
 ---------------------------------------------------------------------------
     1   7 N    3.419 --     7 C    1.252     2 C    1.000    41 H    0.920
                             9 O    0.166
     2   6 C    3.965 --     1 N    1.000     3 C    0.956    42 H    0.949
                            43 H    0.947
     3   6 C    3.956 --     4 O    1.707     5 N    1.226     2 C    0.956
     4   8 O    2.023 --     3 C    1.707     5 N    0.196
     5   7 N    3.417 --     3 C    1.226     6 C    0.982    44 H    0.936
                             4 O    0.196
     6   6 C    3.963 --     5 N    0.982    31 C    0.953    45 H    0.948
                            29 C    0.941
     7   6 C    3.938 --     9 O    1.665     1 N    1.252     8 C    0.930
     8   6 C    3.964 --    10 N    0.992    46 H    0.952    11 C    0.951
                             7 C    0.930
     9   8 O    1.982 --     7 C    1.665     1 N    0.166
    10   7 N    3.422 --    12 C    1.208     8 C    0.992    47 H    0.934
                            15 O    0.205
    11   6 C    3.973 --    13 C    0.998    48 H    0.975    49 H    0.963
                             8 C    0.951
    12   6 C    3.948 --    15 O    1.708    10 N    1.208    14 C    0.967
    13   6 C    3.950 --    11 C    0.998    51 H    0.980    50 H    0.971
                            16 C    0.844
    14   6 C    3.959 --    17 N    0.972    12 C    0.967    53 H    0.963
                            52 H    0.958
    15   8 O    2.022 --    12 C    1.708    10 N    0.205
    16   6 C    3.943 --    18 O    1.566    19 O    1.515    13 C    0.844
    17   7 N    3.390 --    20 C    1.219    14 C    0.972    54 H    0.928
                            22 O    0.191
    18   8 O    1.888 --    16 C    1.566    19 O    0.237
    19   8 O    1.830 --    16 C    1.515    18 O    0.237
    20   6 C    3.938 --    22 O    1.738    17 N    1.219    21 C    0.897
    21   6 C    3.954 --    24 C    1.011    23 N    0.961    55 H    0.958
                            20 C    0.897
    22   8 O    2.046 --    20 C    1.738    17 N    0.191
    23   7 N    3.449 --    25 C    1.296    21 C    0.961    56 H    0.923
                            27 O    0.189
    24   6 C    3.986 --    21 C    1.011    57 H    0.983    59 H    0.982
                            58 H    0.978
    25   6 C    3.953 --    27 O    1.671    23 N    1.296    26 C    0.915
    26   6 C    3.977 --    28 N    1.019    60 H    0.958    61 H    0.955
                            25 C    0.915
    27   8 O    1.997 --    25 C    1.671    23 N    0.189
    28   7 N    3.426 --    29 C    1.236    26 C    1.019    62 H    0.920
                            30 O    0.184
    29   6 C    3.948 --    30 O    1.686    28 N    1.236     6 C    0.941
    30   8 O    1.991 --    29 C    1.686    28 N    0.184
    31   6 C    3.982 --    32 C    1.021    64 H    0.967    63 H    0.954
                             6 C    0.953
    32   6 C    3.981 --    33 C    1.629    34 C    1.170    31 C    1.021
    33   6 C    3.950 --    32 C    1.629    35 N    1.151    65 H    0.967
    34   6 C    3.986 --    37 C    1.353    36 C    1.238    32 C    1.170
    35   7 N    3.465 --    33 C    1.151    36 C    1.145    66 H    0.942
    36   6 C    3.964 --    38 C    1.397    34 C    1.238    35 N    1.145
    37   6 C    3.993 --    39 C    1.506    34 C    1.353    67 H    0.960
    38   6 C    3.988 --    40 C    1.450    36 C    1.397    68 H    0.967
    39   6 C    3.992 --    37 C    1.506    40 C    1.373    69 H    0.973
    40   6 C    3.983 --    38 C    1.450    39 C    1.373    70 H    0.971
    41   1 H    0.962 --     1 N    0.920
    42   1 H    0.994 --     2 C    0.949
    43   1 H    0.997 --     2 C    0.947
    44   1 H    0.965 --     5 N    0.936
    45   1 H    0.997 --     6 C    0.948
    46   1 H    0.997 --     8 C    0.952
    47   1 H    0.968 --    10 N    0.934
    48   1 H    1.000 --    11 C    0.975
    49   1 H    0.996 --    11 C    0.963
    50   1 H    1.000 --    13 C    0.971
    51   1 H    1.000 --    13 C    0.980
    52   1 H    0.993 --    14 C    0.958
    53   1 H    0.996 --    14 C    0.963
    54   1 H    0.966 --    17 N    0.928
    55   1 H    0.993 --    21 C    0.958
    56   1 H    0.971 --    23 N    0.923
    57   1 H    0.998 --    24 C    0.983
    58   1 H    0.995 --    24 C    0.978
    59   1 H    0.996 --    24 C    0.982
    60   1 H    0.998 --    26 C    0.958
    61   1 H    0.994 --    26 C    0.955
    62   1 H    0.960 --    28 N    0.920
    63   1 H    0.995 --    31 C    0.954
    64   1 H    0.994 --    31 C    0.967
    65   1 H    0.998 --    33 C    0.967
    66   1 H    0.974 --    35 N    0.942
    67   1 H    0.999 --    37 C    0.960
    68   1 H    0.999 --    38 C    0.967
    69   1 H    0.998 --    39 C    0.973
    70   1 H    1.000 --    40 C    0.971
 ---------------------------------------------------------------------------

Topologies differ in total number of bonds
Writing topology from bond orders to xtbtopo.mol

molecular dipole:
                 x           y           z       tot (Debye)
 q only:        3.248       9.527       6.353
   full:        3.030       9.612       6.161      30.024
molecular quadrupole (traceless):
                xx          xy          yy          xz          yz          zz
 q only:       51.403     -58.625     -55.052     -29.146    -122.599       3.649
  q+dip:       36.680     -59.863     -50.607     -22.980    -125.821      13.927
   full:       38.634     -61.396     -51.981     -24.753    -124.540      13.346


           -------------------------------------------------
          | TOTAL ENERGY             -122.053988689806 Eh   |
          | GRADIENT NORM               0.313852596698 Eh/α |
          | HOMO-LUMO GAP               0.332252809774 eV   |
           -------------------------------------------------

------------------------------------------------------------------------
 * finished run on 2026/05/23 at 08:17:24.034     
------------------------------------------------------------------------
 total:
 * wall-time:     0 d,  0 h,  0 min, 16.586 sec
 *  cpu-time:     0 d,  0 h,  0 min, 25.817 sec
 * ratio c/w:     1.557 speedup
 SCF:
 * wall-time:     0 d,  0 h,  0 min, 15.798 sec
 *  cpu-time:     0 d,  0 h,  0 min, 25.055 sec
 * ratio c/w:     1.586 speedup

normal termination of xtb
