      -----------------------------------------------------------      
     |                   =====================                   |     
     |                           x T B                           |     
     |                   =====================                   |     
     |                         S. Grimme                         |     
     |          Mulliken Center for Theoretical Chemistry        |     
     |                    University of Bonn                     |     
      -----------------------------------------------------------      

   * xtb version 6.7.1 (26dd68d) compiled by 'froitzheim@fs7' on 2026-05-14

   xtb is free software: you can redistribute it and/or modify it under
   the terms of the GNU Lesser General Public License as published by
   the Free Software Foundation, either version 3 of the License, or
   (at your option) any later version.
   
   xtb is distributed in the hope that it will be useful,
   but WITHOUT ANY WARRANTY; without even the implied warranty of
   MERCHANTABILITY or FITNESS FOR A PARTICULAR PURPOSE.  See the
   GNU Lesser General Public License for more details.
   
   Cite this work as:
   * C. Bannwarth, E. Caldeweyher, S. Ehlert, A. Hansen, P. Pracht,
     J. Seibert, S. Spicher, S. Grimme, WIREs Comput. Mol. Sci., 2020, 11,
     e01493. DOI: 10.1002/wcms.1493
   
   for g-xTB:
   * T. Froitzheim, M. Müller, A. Hansen, S. Grimme, ChemRxiv, 2025, preprint.
     DOI: 10.26434/chemrxiv-2025-bjxv
   for GFN2-xTB:
   * C. Bannwarth, S. Ehlert and S. Grimme., J. Chem. Theory Comput., 2019,
     15, 1652-1671. DOI: 10.1021/acs.jctc.8b01176
   for GFN1-xTB:
   * S. Grimme, C. Bannwarth, P. Shushkov, J. Chem. Theory Comput., 2017,
     13, 1989-2009. DOI: 10.1021/acs.jctc.7b00118
   for GFN0-xTB:
   * P. Pracht, E. Caldeweyher, S. Ehlert, S. Grimme, ChemRxiv, 2019, preprint.
     DOI: 10.26434/chemrxiv.8326202.v1
   for GFN-FF:
   * S. Spicher and S. Grimme, Angew. Chem. Int. Ed., 2020, 59, 15665-15673.
     DOI: 10.1002/anie.202004239
   
   for ALPB and GBSA implicit solvation:
   * S. Ehlert, M. Stahn, S. Spicher, S. Grimme, J. Chem. Theory Comput.,
     2021, 17, 4250-4261. DOI: 10.1021/acs.jctc.1c00471
   
   for ddCOSMO and CPCM-X implicit solvation:
   * M. Stahn, S. Ehlert, S. Grimme, J. Phys. Chem. A,
     2023, XX, XXXX-XXXX. DOI: 10.1021/acs.jpca.3c04382
   
   for DFT-D4:
   * E. Caldeweyher, C. Bannwarth and S. Grimme, J. Chem. Phys., 2017,
     147, 034112. DOI: 10.1063/1.4993215
   * E. Caldeweyher, S. Ehlert, A. Hansen, H. Neugebauer, S. Spicher,
     C. Bannwarth and S. Grimme, J. Chem. Phys., 2019, 150, 154122.
     DOI: 10.1063/1.5090222
   * E. Caldeweyher, J.-M. Mewes, S. Ehlert and S. Grimme, Phys. Chem. Chem. Phys.
     2020, 22, 8499-8512. DOI: 10.1039/D0CP00502A
   
   for sTDA-xTB:
   * S. Grimme and C. Bannwarth, J. Chem. Phys., 2016, 145, 054103.
     DOI: 10.1063/1.4959605
   
   in the mass-spec context:
   * V. Asgeirsson, C. Bauer and S. Grimme, Chem. Sci., 2017, 8, 4879.
     DOI: 10.1039/c7sc00601b
   * J. Koopman and S. Grimme, ACS Omega 2019, 4, 12, 15120-15133.
     DOI: 10.1021/acsomega.9b02011
   
   for metadynamics refer to:
   * S. Grimme, J. Chem. Theory Comput., 2019, 155, 2847-2862
     DOI: 10.1021/acs.jctc.9b00143
   
   for SPH calculations refer to:
   * S. Spicher and S. Grimme, J. Chem. Theory Comput., 2021, 17, 1701-1714
     DOI: 10.1021/acs.jctc.0c01306
   
   for ONIOM refer to:
   * C. Plett, A. Katbashev, S. Ehlert, S. Grimme, M. Bursch,
     Phys. Chem. Chem. Phys., 2023, 25, 17860-17868. DOI: 10.1039/D3CP02178E
   
   for DIPRO refer to:
   * J. Kohn, N. Gildemeister, S. Grimme, D. Fazzi, A. Hansen,
     J. Chem. Phys. 159, 144106 (2023). DOI: 10.1063/5.0167484
   
   for PTB refer to:
   * S. Grimme, M. Mueller, A. Hansen, J. Chem. Phys., 2023, 158, 124111.
     DOI: 10.1063/5.0137838
   
   with help from (in alphabetical order)
   P. Atkinson, C. Bannwarth, F. Bohle, G. Brandenburg, E. Caldeweyher,
   M. Checinski, S. Dohm, S. Ehlert, S. Ehrlich, M. Friede, T. Froitzheim,
   I. Gerasimov, C. Hölzer, A. Katbashev, J. Kohn, J. Koopman, C. Lavigne,
   S. Lehtola, F. März, M. Müller, F. Musil, H. Neugebauer, J. Pisarek,
   C. Plett, P. Pracht, F. Pultar, J. Seibert, P. Shushkov, S. Spicher,
   M. Stahn, M. Steiner, T. Strunk, J. Stückrath, T. Rose, and J. Unsleber
   
 * started run on 2026/05/23 at 12:52:41.922     
   ID    Z sym.   atoms
    1    7 N      1, 5, 10, 18, 29, 37, 45, 48
    2    6 C      2, 3, 6-8, 11-14, 16, 17, 19-25, 27, 28, 30-33, 35, 36,
                  38-43, 46, 47, 49-56
    3    8 O      4, 9, 15, 26, 34, 44
    4    1 H      57-114

           -------------------------------------------------
          |                Calculation Setup                |
           -------------------------------------------------

          program call               : /home/xchen/software/xtb-6.7.1-gxtb/bin/xtb /home/xchen/Test/benchmark/md_sampled/10_6_0573_0/snap_0149.xyz --charge 0 --gxtb --norestart
          coordinate file            : /home/xchen/Test/benchmark/md_sampled/10_6_0573_0/snap_0149.xyz
          omp threads                :                    48

core increment energy         -2.2833104851216E+03 Eh
dispersion energy              2.5876254677380E-02 Eh
molecular charge               0.0000000000000E+00 e
number of electrons            3.0199999999720E+02 e
number of unpaired electrons   0.0000000000000E+00 e
wavefunction                   restricted
integral cutoff                2.6907767250513E+01 bohr
energy convergence             1.0000000000000E-06 Eh
density convergence            2.0000000000000E-05 e

------------------------------------------------------------
  cycle        total energy    energy error   density error
------------------------------------------------------------
      1     -2523.658748299  -2.4037414E+02   0.0000000E+00
      2     -2524.016476702  -3.5772840E-01   1.8309213E-02
      3     -2524.234259719  -2.1778302E-01   1.4366564E-02
      4     -2524.663219231  -4.2895951E-01   1.1373005E-02
      5     -2524.672533360  -9.3141284E-03   9.6976030E-04
      6     -2524.673055372  -5.2201167E-04   1.5300764E-04
      7     -2524.673126374  -7.1002057E-05   6.4913197E-05
      8     -2524.673132037  -5.6630622E-06   1.3978122E-05
      9     -2524.673132891  -8.5455366E-07   3.9798857E-06
------------------------------------------------------------

electronic energy             -2.4138852402429E+02 Eh
total energy                  -2.5246731328912E+03 Eh

Post processing:
 | Mayer-Wiberg bond orders
 | Molecular Multipole Moments

 total:                                  32.241 sec
 - increment                              0.000 sec (  0%)
 - repulsion                              0.010 sec (  0%)
 - dispersion                             0.419 sec (  1%)
 - coulomb                                0.185 sec (  0%)
 - exchange                               0.011 sec (  0%)
 - hamiltonian                           22.829 sec ( 70%)
 - acp                                    0.280 sec (  0%)
 - spin polarization                      0.000 sec (  0%)
 - post processing                        0.142 sec (  0%)
 - scc                                    7.481 sec ( 23%)
 - coulomb gradient                       0.080 sec (  0%)
 - dispersion gradient                    0.038 sec (  0%)
 - exchange gradient                      0.128 sec (  0%)
 - repulsion gradient                     0.004 sec (  0%)
 - acp gradient                           0.290 sec (  0%)
 - hamiltonian gradient                   0.477 sec (  1%)
 - gradient                               1.018 sec (  3%)

         :::::::::::::::::::::::::::::::::::::::::::::::::::::
         ::                     SUMMARY                     ::
         :::::::::::::::::::::::::::::::::::::::::::::::::::::
         :: total energy           -2524.673132891209 Eh    ::
         :: gradient norm              0.386959063756 Eh/a0 ::
         :: HOMO-LUMO gap              8.495004182922 eV    ::
         ::.................................................::
         :: add. restraining           0.000000000000 Eh    ::
         :: total charge              -0.000000000000 e     ::
         :::::::::::::::::::::::::::::::::::::::::::::::::::::

           -------------------------------------------------
          |                Property Printout                |
           -------------------------------------------------

    * Orbital Energies and Occupations
------------------------------------------------------------------
      #    Occupation            Energy/Eh            Energy/eV
------------------------------------------------------------------
      1        2.0000           -1.3334997             -36.2864
    ...           ...                  ...                  ...
    139        2.0000           -0.3749468             -10.2028
    140        2.0000           -0.3747089             -10.1963
    141        2.0000           -0.3726844             -10.1413
    142        2.0000           -0.3718312             -10.1180
    143        2.0000           -0.3694498             -10.0532
    144        2.0000           -0.3676415             -10.0040
    145        2.0000           -0.3639975              -9.9049
    146        2.0000           -0.3578172              -9.7367
    147        2.0000           -0.3523287              -9.5874
    148        2.0000           -0.3513539              -9.5608
    149        2.0000           -0.3472220              -9.4484
    150        2.0000           -0.3425537              -9.3214
    151        2.0000           -0.3245169              -8.8306 (HOMO)
    152                         -0.0123313              -0.3356 (LUMO)
    153                          0.0036466               0.0992
    154                          0.0044661               0.1215
    155                          0.0166043               0.4518
    156                          0.0169559               0.4614
    157                          0.0257539               0.7008
    158                          0.0310974               0.8462
    159                          0.0329113               0.8956
    160                          0.0383227               1.0428
    161                          0.0473198               1.2876
    162                          0.0610769               1.6620
    ...                                ...                  ...
    282                          0.8937122              24.3191
------------------------------------------------------------------
               HL-Gap            0.3121856 Eh            8.4950 eV
------------------------------------------------------------------

Atomic charges and shell populations (in atomic units):
------------------------------------------------------
     #    Z                q          p(s)       p(p)
------------------------------------------------------
     1    7 N      -0.361716      1.363863   3.997853
     2    6 C       0.010334      1.123694   2.865971
     3    6 C       0.411013      1.099230   2.489757
     4    8 O      -0.519664      1.859216   4.660448
     5    7 N      -0.358305      1.367005   3.991299
     6    6 C       0.029156      1.141261   2.829583
     7    6 C       0.394274      1.125671   2.480055
     8    6 C      -0.002846      1.114599   2.888246
     9    8 O      -0.522004      1.854136   4.667868
    10    7 N      -0.319094      1.337457   3.981637
    11    6 C      -0.167453      1.146344   3.021110
    12    6 C       0.427539      1.102492   2.469969
    13    6 C      -0.045663      1.129166   2.916497
    14    6 C      -0.012302      1.126071   2.886231
    15    8 O      -0.525976      1.861399   4.664576
    16    6 C      -0.119171      1.165434   2.953737
    17    6 C      -0.108578      1.155803   2.952775
    18    7 N      -0.368747      1.379006   3.989741
    19    6 C      -0.158867      1.164990   2.993876
    20    6 C      -0.097824      1.155704   2.942120
    21    6 C      -0.086830      1.148699   2.938131
    22    6 C       0.404148      1.111538   2.484315
    23    6 C      -0.147306      1.139990   3.007316
    24    6 C      -0.086516      1.151500   2.935016
    25    6 C      -0.018924      1.111127   2.907797
    26    8 O      -0.482473      1.856104   4.626370
    27    6 C      -0.245708      1.188590   3.057118
    28    6 C      -0.261739      1.160888   3.100851
    29    7 N      -0.357890      1.341247   4.016643
    30    6 C      -0.177853      1.174355   3.003498
    31    6 C       0.444048      1.105271   2.450680
    32    6 C      -0.033065      1.133823   2.899242
    33    6 C      -0.003963      1.107677   2.896286
    34    8 O      -0.470168      1.852335   4.617834
    35    6 C      -0.124376      1.151703   2.972673
    36    6 C      -0.091047      1.149896   2.941151
    37    7 N      -0.374050      1.372472   4.001578
    38    6 C      -0.158983      1.144858   3.014125
    39    6 C      -0.107259      1.156374   2.950885
    40    6 C      -0.088066      1.147161   2.940906
    41    6 C       0.425654      1.099870   2.474477
    42    6 C       0.021505      1.109885   2.868610
    43    6 C      -0.102734      1.156077   2.946657
    44    8 O      -0.509755      1.851730   4.658025
    45    7 N      -0.327994      1.559280   3.768714
    46    6 C      -0.106778      1.144609   2.962170
    47    6 C       0.078233      1.117019   2.804748
    48    7 N      -0.239071      1.360879   3.878191
    49    6 C      -0.075874      1.130046   2.945828
    50    6 C      -0.277102      1.159904   3.117198
    51    6 C      -0.182348      1.138339   3.044009
    52    6 C      -0.255756      1.170111   3.085646
    53    6 C      -0.118346      1.127109   2.991238
    54    6 C      -0.253752      1.156500   3.097252
    55    6 C      -0.164553      1.143699   3.020853
    56    6 C      -0.266626      1.155197   3.111429
    57    1 H       0.255570      0.744430
    58    1 H       0.158418      0.841582
    59    1 H       0.234158      0.765842
    60    1 H       0.139524      0.860476
    61    1 H       0.136364      0.863636
    62    1 H       0.268120      0.731880
    63    1 H       0.107484      0.892516
    64    1 H       0.091162      0.908838
    65    1 H       0.162224      0.837776
    66    1 H       0.093093      0.906907
    67    1 H       0.111681      0.888319
    68    1 H       0.257261      0.742739
    69    1 H       0.079786      0.920214
    70    1 H       0.119018      0.880982
    71    1 H       0.106132      0.893868
    72    1 H       0.114327      0.885673
    73    1 H       0.106177      0.893823
    74    1 H       0.107899      0.892101
    75    1 H       0.135816      0.864184
    76    1 H       0.115003      0.884997
    77    1 H       0.085302      0.914698
    78    1 H       0.081131      0.918869
    79    1 H       0.092524      0.907476
    80    1 H       0.091979      0.908021
    81    1 H       0.100053      0.899947
    82    1 H       0.249076      0.750924
    83    1 H       0.107154      0.892846
    84    1 H       0.065673      0.934327
    85    1 H       0.139527      0.860473
    86    1 H       0.100850      0.899150
    87    1 H       0.118314      0.881686
    88    1 H       0.294078      0.705922
    89    1 H       0.147346      0.852654
    90    1 H       0.090885      0.909115
    91    1 H       0.100425      0.899575
    92    1 H       0.120951      0.879049
    93    1 H       0.115437      0.884563
    94    1 H       0.151809      0.848191
    95    1 H       0.118590      0.881410
    96    1 H       0.268927      0.731073
    97    1 H       0.087547      0.912453
    98    1 H       0.102381      0.897619
    99    1 H       0.094800      0.905200
   100    1 H       0.085289      0.914711
   101    1 H       0.116053      0.883947
   102    1 H       0.117244      0.882756
   103    1 H       0.078365      0.921635
   104    1 H       0.086686      0.913314
   105    1 H       0.071802      0.928198
   106    1 H       0.122190      0.877810
   107    1 H       0.103063      0.896937
   108    1 H       0.096009      0.903991
   109    1 H       0.089584      0.910416
   110    1 H       0.115461      0.884539
   111    1 H       0.069536      0.930464
   112    1 H       0.076329      0.923671
   113    1 H       0.086818      0.913182
   114    1 H       0.100805      0.899195
------------------------------------------------------


Wiberg/Mayer (AO) data.
largest (>0.10) Wiberg bond orders for each atom

 ---------------------------------------------------------------------------
     #   Z sym  total        # sym  WBO       # sym  WBO       # sym  WBO
 ---------------------------------------------------------------------------
     1   7 N    3.307 --     7 C    1.206     2 C    0.949    57 O    0.893
                             9 C    0.158
     2   6 C    3.914 --    49 C    0.956     1 N    0.949     3 C    0.943
                            58 O    0.924
     3   6 C    3.884 --     4 C    1.660     5 N    1.206     2 C    0.943
     4   8 C    1.945 --     3 C    1.660     5 N    0.166
     5   7 N    3.301 --     3 C    1.206     6 C    0.927    59 O    0.902
                             4 C    0.166
     6   6 C    3.917 --    41 C    0.960    53 C    0.959    60 O    0.936
                             5 N    0.927
     7   6 C    3.860 --     9 C    1.670     1 N    1.206     8 C    0.902
     8   6 C    3.949 --    10 N    1.003    11 C    0.969    61 O    0.935
                             7 C    0.902
     9   8 C    1.967 --     7 C    1.670     1 N    0.158
    10   7 N    3.337 --    12 C    1.198     8 C    1.003    62 O    0.880
                            15 C    0.155
    11   6 C    3.967 --    13 C    1.013     8 C    0.969    63 O    0.955
                            64 O    0.949
    12   6 C    3.864 --    15 C    1.665    10 N    1.198    14 C    0.922
    13   6 C    3.975 --    16 C    1.410    17 C    1.392    11 C    1.013
                            24 C    0.118
    14   6 C    3.918 --    18 N    0.970    19 C    0.969    12 C    0.922
                            65 O    0.911
    15   8 C    1.939 --    12 C    1.665    10 N    0.155
    16   6 C    3.964 --    20 C    1.427    13 C    1.410    66 O    0.953
                            21 C    0.116
    17   6 C    3.962 --    21 C    1.450    13 C    1.392    67 O    0.949
                            20 C    0.119
    18   7 N    3.299 --    22 C    1.182    14 C    0.970    68 O    0.884
                            26 C    0.157
    19   6 C    3.955 --    23 C    0.998    14 C    0.969    69 O    0.959
                            70 O    0.956
    20   6 C    3.965 --    24 C    1.438    16 C    1.427    71 O    0.955
                            17 C    0.119
    21   6 C    3.966 --    17 C    1.450    24 C    1.422    72 O    0.952
                            16 C    0.116
    22   6 C    3.869 --    26 C    1.708    18 N    1.182    25 C    0.896
    23   6 C    3.972 --    28 C    1.017    19 C    0.998    27 C    0.989
                            73 O    0.944
    24   6 C    3.967 --    20 C    1.438    21 C    1.422    74 O    0.955
                            13 C    0.118
    25   6 C    3.947 --    29 N    1.006    30 C    0.988    75 O    0.928
                            22 C    0.896
    26   8 C    2.002 --    22 C    1.708    18 N    0.157
    27   6 C    3.949 --    23 C    0.989    78 O    0.976    77 O    0.975
                            76 O    0.959
    28   6 C    3.961 --    23 C    1.017    79 O    0.971    80 O    0.971
                            81 O    0.969
    29   7 N    3.259 --    31 C    1.086    25 C    1.006    82 O    0.904
                            34 C    0.152
    30   6 C    3.962 --    32 C    0.990    25 C    0.988    83 O    0.949
                            84 O    0.949
    31   6 C    3.856 --    34 C    1.766    29 N    1.086    33 C    0.936
    32   6 C    3.973 --    36 C    1.514    35 C    1.303    30 C    0.990
                            43 C    0.121
    33   6 C    3.940 --    38 C    0.976    37 N    0.975    31 C    0.936
                            85 O    0.934
    34   8 C    2.024 --    31 C    1.766    29 N    0.152
    35   6 C    3.966 --    39 C    1.558    32 C    1.303    86 O    0.952
                            40 C    0.110
    36   6 C    3.966 --    32 C    1.514    40 C    1.336    87 O    0.949
                            39 C    0.115
    37   7 N    3.240 --    41 C    1.139    33 C    0.975    88 O    0.868
                            44 C    0.155
    38   6 C    3.951 --    42 C    0.992    33 C    0.976    90 O    0.944
                            89 O    0.927
    39   6 C    3.968 --    35 C    1.558    43 C    1.314    91 O    0.956
                            36 C    0.115
    40   6 C    3.966 --    43 C    1.544    36 C    1.336    92 O    0.951
                            35 C    0.110
    41   6 C    3.870 --    44 C    1.703    37 N    1.139     6 C    0.960
    42   6 C    3.950 --    46 C    1.548    45 N    1.264    38 C    0.992
    43   6 C    3.966 --    40 C    1.544    39 C    1.314    93 O    0.956
                            32 C    0.121
    44   8 C    1.986 --    41 C    1.703    37 N    0.155
    45   7 N    3.024 --    47 C    1.566    42 C    1.264
    46   6 C    3.884 --    42 C    1.548    48 N    1.182    94 O    0.945
                            47 C    0.117
    47   6 C    3.918 --    45 N    1.566    48 N    1.237    95 O    0.941
                            46 C    0.117
    48   7 N    3.502 --    47 C    1.237    46 C    1.182    96 O    0.897
    49   6 C    3.973 --    50 C    1.016    51 C    0.997     2 C    0.956
                            97 O    0.941
    50   6 C    3.961 --    49 C    1.016    99 O    0.968    98 O    0.965
                           100 O    0.962
    51   6 C    3.960 --    52 C    1.014    49 C    0.997   102 O    0.960
                           101 O    0.952
    52   6 C    3.959 --    51 C    1.014   103 O    0.975   105 O    0.974
                           104 O    0.974
    53   6 C    3.969 --    54 C    1.021    55 C    0.982     6 C    0.959
                           106 O    0.939
    54   6 C    3.962 --    53 C    1.021   108 O    0.967   107 O    0.967
                           109 O    0.966
    55   6 C    3.968 --    56 C    1.033    53 C    0.982   111 O    0.957
                           110 O    0.950
    56   6 C    3.964 --    55 C    1.033   112 O    0.972   113 O    0.972
                           114 O    0.966
    57   1 O    0.935 --     1 N    0.893
    58   1 O    0.975 --     2 C    0.924
    59   1 O    0.945 --     5 N    0.902
    60   1 O    0.981 --     6 C    0.936
    61   1 O    0.981 --     8 C    0.935
    62   1 O    0.928 --    10 N    0.880
    63   1 O    0.988 --    11 C    0.955
    64   1 O    0.992 --    11 C    0.949
    65   1 O    0.974 --    14 C    0.911
    66   1 O    0.991 --    16 C    0.953
    67   1 O    0.988 --    17 C    0.949
    68   1 O    0.934 --    18 N    0.884
    69   1 O    0.994 --    19 C    0.959
    70   1 O    0.986 --    19 C    0.956
    71   1 O    0.989 --    20 C    0.955
    72   1 O    0.987 --    21 C    0.952
    73   1 O    0.989 --    23 C    0.944
    74   1 O    0.988 --    24 C    0.955
    75   1 O    0.982 --    25 C    0.928
    76   1 O    0.987 --    27 C    0.959
    77   1 O    0.993 --    27 C    0.975
    78   1 O    0.993 --    27 C    0.976
    79   1 O    0.991 --    28 C    0.971
    80   1 O    0.992 --    28 C    0.971
    81   1 O    0.990 --    28 C    0.969
    82   1 O    0.938 --    29 N    0.904
    83   1 O    0.989 --    30 C    0.949
    84   1 O    0.996 --    30 C    0.949
    85   1 O    0.981 --    33 C    0.934
    86   1 O    0.990 --    35 C    0.952
    87   1 O    0.986 --    36 C    0.949
    88   1 O    0.914 --    37 N    0.868
    89   1 O    0.978 --    38 C    0.927
    90   1 O    0.992 --    38 C    0.944
    91   1 O    0.990 --    39 C    0.956
    92   1 O    0.985 --    40 C    0.951
    93   1 O    0.987 --    43 C    0.956
    94   1 O    0.977 --    46 C    0.945
    95   1 O    0.986 --    47 C    0.941
    96   1 O    0.928 --    48 N    0.897
    97   1 O    0.992 --    49 C    0.941
    98   1 O    0.990 --    50 C    0.965
    99   1 O    0.991 --    50 C    0.968
   100   1 O    0.993 --    50 C    0.962
   101   1 O    0.987 --    51 C    0.952
   102   1 O    0.986 --    51 C    0.960
   103   1 O    0.994 --    52 C    0.975
   104   1 O    0.992 --    52 C    0.974
   105   1 O    0.995 --    52 C    0.974
   106   1 O    0.985 --    53 C    0.939
   107   1 O    0.989 --    54 C    0.967
   108   1 O    0.991 --    54 C    0.967
   109   1 O    0.992 --    54 C    0.966
   110   1 O    0.987 --    55 C    0.950
   111   1 O    0.995 --    55 C    0.957
   112   1 O    0.994 --    56 C    0.972
   113   1 O    0.992 --    56 C    0.972
   114   1 O    0.990 --    56 C    0.966
 ---------------------------------------------------------------------------

Topologies differ in total number of bonds
Writing topology from bond orders to xtbtopo.mol

Atomic dipole moments (in atomic units):
---------------------------------------------------------
     #    Z                 x            y            z
---------------------------------------------------------
           total    -0.318260     1.083197    -5.054864
---------------------------------------------------------
         |total|     5.179407    13.164739 Debye


           -------------------------------------------------
          | TOTAL ENERGY            -2524.673132891209 Eh   |
          | GRADIENT NORM               0.386959063756 Eh/α |
           -------------------------------------------------

------------------------------------------------------------------------
 * finished run on 2026/05/23 at 12:53:15.364     
------------------------------------------------------------------------
 total:
 * wall-time:     0 d,  0 h,  0 min, 33.441 sec
 *  cpu-time:     0 d,  0 h,  1 min, 40.866 sec
 * ratio c/w:     3.016 speedup
 SCF:
 * wall-time:     0 d,  0 h,  0 min, 33.042 sec
 *  cpu-time:     0 d,  0 h,  1 min, 40.366 sec
 * ratio c/w:     3.037 speedup

normal termination of xtb
