      -----------------------------------------------------------      
     |                   =====================                   |     
     |                           x T B                           |     
     |                   =====================                   |     
     |                         S. Grimme                         |     
     |          Mulliken Center for Theoretical Chemistry        |     
     |                    University of Bonn                     |     
      -----------------------------------------------------------      

   * xtb version 6.7.1 (26dd68d) compiled by 'froitzheim@fs7' on 2026-05-14

   xtb is free software: you can redistribute it and/or modify it under
   the terms of the GNU Lesser General Public License as published by
   the Free Software Foundation, either version 3 of the License, or
   (at your option) any later version.
   
   xtb is distributed in the hope that it will be useful,
   but WITHOUT ANY WARRANTY; without even the implied warranty of
   MERCHANTABILITY or FITNESS FOR A PARTICULAR PURPOSE.  See the
   GNU Lesser General Public License for more details.
   
   Cite this work as:
   * C. Bannwarth, E. Caldeweyher, S. Ehlert, A. Hansen, P. Pracht,
     J. Seibert, S. Spicher, S. Grimme, WIREs Comput. Mol. Sci., 2020, 11,
     e01493. DOI: 10.1002/wcms.1493
   
   for g-xTB:
   * T. Froitzheim, M. Müller, A. Hansen, S. Grimme, ChemRxiv, 2025, preprint.
     DOI: 10.26434/chemrxiv-2025-bjxv
   for GFN2-xTB:
   * C. Bannwarth, S. Ehlert and S. Grimme., J. Chem. Theory Comput., 2019,
     15, 1652-1671. DOI: 10.1021/acs.jctc.8b01176
   for GFN1-xTB:
   * S. Grimme, C. Bannwarth, P. Shushkov, J. Chem. Theory Comput., 2017,
     13, 1989-2009. DOI: 10.1021/acs.jctc.7b00118
   for GFN0-xTB:
   * P. Pracht, E. Caldeweyher, S. Ehlert, S. Grimme, ChemRxiv, 2019, preprint.
     DOI: 10.26434/chemrxiv.8326202.v1
   for GFN-FF:
   * S. Spicher and S. Grimme, Angew. Chem. Int. Ed., 2020, 59, 15665-15673.
     DOI: 10.1002/anie.202004239
   
   for ALPB and GBSA implicit solvation:
   * S. Ehlert, M. Stahn, S. Spicher, S. Grimme, J. Chem. Theory Comput.,
     2021, 17, 4250-4261. DOI: 10.1021/acs.jctc.1c00471
   
   for ddCOSMO and CPCM-X implicit solvation:
   * M. Stahn, S. Ehlert, S. Grimme, J. Phys. Chem. A,
     2023, XX, XXXX-XXXX. DOI: 10.1021/acs.jpca.3c04382
   
   for DFT-D4:
   * E. Caldeweyher, C. Bannwarth and S. Grimme, J. Chem. Phys., 2017,
     147, 034112. DOI: 10.1063/1.4993215
   * E. Caldeweyher, S. Ehlert, A. Hansen, H. Neugebauer, S. Spicher,
     C. Bannwarth and S. Grimme, J. Chem. Phys., 2019, 150, 154122.
     DOI: 10.1063/1.5090222
   * E. Caldeweyher, J.-M. Mewes, S. Ehlert and S. Grimme, Phys. Chem. Chem. Phys.
     2020, 22, 8499-8512. DOI: 10.1039/D0CP00502A
   
   for sTDA-xTB:
   * S. Grimme and C. Bannwarth, J. Chem. Phys., 2016, 145, 054103.
     DOI: 10.1063/1.4959605
   
   in the mass-spec context:
   * V. Asgeirsson, C. Bauer and S. Grimme, Chem. Sci., 2017, 8, 4879.
     DOI: 10.1039/c7sc00601b
   * J. Koopman and S. Grimme, ACS Omega 2019, 4, 12, 15120-15133.
     DOI: 10.1021/acsomega.9b02011
   
   for metadynamics refer to:
   * S. Grimme, J. Chem. Theory Comput., 2019, 155, 2847-2862
     DOI: 10.1021/acs.jctc.9b00143
   
   for SPH calculations refer to:
   * S. Spicher and S. Grimme, J. Chem. Theory Comput., 2021, 17, 1701-1714
     DOI: 10.1021/acs.jctc.0c01306
   
   for ONIOM refer to:
   * C. Plett, A. Katbashev, S. Ehlert, S. Grimme, M. Bursch,
     Phys. Chem. Chem. Phys., 2023, 25, 17860-17868. DOI: 10.1039/D3CP02178E
   
   for DIPRO refer to:
   * J. Kohn, N. Gildemeister, S. Grimme, D. Fazzi, A. Hansen,
     J. Chem. Phys. 159, 144106 (2023). DOI: 10.1063/5.0167484
   
   for PTB refer to:
   * S. Grimme, M. Mueller, A. Hansen, J. Chem. Phys., 2023, 158, 124111.
     DOI: 10.1063/5.0137838
   
   with help from (in alphabetical order)
   P. Atkinson, C. Bannwarth, F. Bohle, G. Brandenburg, E. Caldeweyher,
   M. Checinski, S. Dohm, S. Ehlert, S. Ehrlich, M. Friede, T. Froitzheim,
   I. Gerasimov, C. Hölzer, A. Katbashev, J. Kohn, J. Koopman, C. Lavigne,
   S. Lehtola, F. März, M. Müller, F. Musil, H. Neugebauer, J. Pisarek,
   C. Plett, P. Pracht, F. Pultar, J. Seibert, P. Shushkov, S. Spicher,
   M. Stahn, M. Steiner, T. Strunk, J. Stückrath, T. Rose, and J. Unsleber
   
 * started run on 2026/05/23 at 08:15:07.611     
   ID    Z sym.   atoms
    1    7 N      1, 5, 10, 17, 23, 28, 35
    2    6 C      2, 3, 6-8, 11-14, 16, 20, 21, 24-26, 29, 31-34, 36-40
    3    8 O      4, 9, 15, 18, 19, 22, 27, 30
    4    1 H      41-70

           -------------------------------------------------
          |                Calculation Setup                |
           -------------------------------------------------

          program call               : /home/xchen/software/xtb-6.7.1-gxtb/bin/xtb /home/xchen/Test/benchmark/md_sampled/01_6_0109_n1/snap_0065.xyz --charge -1 --gxtb --norestart
          coordinate file            : /home/xchen/Test/benchmark/md_sampled/01_6_0109_n1/snap_0065.xyz
          omp threads                :                    48

core increment energy         -1.7791297691186E+03 Eh
dispersion energy              1.0348558846560E-02 Eh
molecular charge              -1.0000000000000E+00 e
number of electrons            2.1399999999800E+02 e
number of unpaired electrons   0.0000000000000E+00 e
wavefunction                   restricted
integral cutoff                2.6907767250513E+01 bohr
energy convergence             1.0000000000000E-06 Eh
density convergence            2.0000000000000E-05 e

------------------------------------------------------------
  cycle        total energy    energy error   density error
------------------------------------------------------------
      1     -1954.984765853  -1.7586535E+02   0.0000000E+00
      2     -1955.314747898  -3.2998204E-01   2.5484239E-02
      3     -1955.525118199  -2.1037030E-01   2.0109768E-02
      4     -1955.967068159  -4.4194996E-01   1.5932743E-02
      5     -1955.974399598  -7.3314395E-03   1.1590515E-03
      6     -1955.974862583  -4.6298511E-04   2.0708987E-04
      7     -1955.974907285  -4.4701025E-05   6.8749390E-05
      8     -1955.974910387  -3.1025327E-06   1.4628684E-05
      9     -1955.974910816  -4.2879427E-07   4.3779033E-06
------------------------------------------------------------

electronic energy             -1.7685549025608E+02 Eh
total energy                  -1.9559749108158E+03 Eh

Post processing:
 | Mayer-Wiberg bond orders
 | Molecular Multipole Moments

 total:                                   8.056 sec
 - increment                              0.000 sec (  0%)
 - repulsion                              0.011 sec (  0%)
 - dispersion                             0.307 sec (  3%)
 - coulomb                                0.119 sec (  1%)
 - exchange                               0.022 sec (  0%)
 - hamiltonian                            0.498 sec (  6%)
 - acp                                    0.253 sec (  3%)
 - spin polarization                      0.000 sec (  0%)
 - post processing                        0.110 sec (  1%)
 - scc                                    6.096 sec ( 75%)
 - coulomb gradient                       0.045 sec (  0%)
 - dispersion gradient                    0.025 sec (  0%)
 - exchange gradient                      0.099 sec (  1%)
 - repulsion gradient                     0.006 sec (  0%)
 - acp gradient                           0.267 sec (  3%)
 - hamiltonian gradient                   0.303 sec (  3%)
 - gradient                               0.746 sec (  9%)

         :::::::::::::::::::::::::::::::::::::::::::::::::::::
         ::                     SUMMARY                     ::
         :::::::::::::::::::::::::::::::::::::::::::::::::::::
         :: total energy           -1955.974910815830 Eh    ::
         :: gradient norm              0.354519958278 Eh/a0 ::
         :: HOMO-LUMO gap              5.802108875635 eV    ::
         ::.................................................::
         :: add. restraining           0.000000000000 Eh    ::
         :: total charge              -1.000000000000 e     ::
         :::::::::::::::::::::::::::::::::::::::::::::::::::::

           -------------------------------------------------
          |                Property Printout                |
           -------------------------------------------------

    * Orbital Energies and Occupations
------------------------------------------------------------------
      #    Occupation            Energy/Eh            Energy/eV
------------------------------------------------------------------
      1        2.0000           -1.2735106             -34.6540
    ...           ...                  ...                  ...
     95        2.0000           -0.2997123              -8.1556
     96        2.0000           -0.2972072              -8.0874
     97        2.0000           -0.2926422              -7.9632
     98        2.0000           -0.2910292              -7.9193
     99        2.0000           -0.2904167              -7.9026
    100        2.0000           -0.2871913              -7.8149
    101        2.0000           -0.2815864              -7.6624
    102        2.0000           -0.2761263              -7.5138
    103        2.0000           -0.2684777              -7.3057
    104        2.0000           -0.2507949              -6.8245
    105        2.0000           -0.1813195              -4.9340
    106        2.0000           -0.1670819              -4.5465
    107        2.0000           -0.1631158              -4.4386 (HOMO)
    108                          0.0501078               1.3635 (LUMO)
    109                          0.0766683               2.0863
    110                          0.0831930               2.2638
    111                          0.0985187               2.6808
    112                          0.1006832               2.7397
    113                          0.1061283               2.8879
    114                          0.1079803               2.9383
    115                          0.1097243               2.9858
    116                          0.1333316               3.6281
    117                          0.2306271               6.2757
    118                          0.2347064               6.3867
    ...                                ...                  ...
    190                          1.0312010              28.0604
------------------------------------------------------------------
               HL-Gap            0.2132236 Eh            5.8021 eV
------------------------------------------------------------------

Atomic charges and shell populations (in atomic units):
------------------------------------------------------
     #    Z                q          p(s)       p(p)
------------------------------------------------------
     1    7 N      -0.325597      1.344379   3.981218
     2    6 C      -0.064376      1.125398   2.938977
     3    6 C       0.420528      1.097403   2.482069
     4    8 O      -0.536747      1.853166   4.683581
     5    7 N      -0.332017      1.364342   3.967675
     6    6 C       0.016321      1.115618   2.868060
     7    6 C       0.390719      1.114234   2.495047
     8    6 C      -0.018344      1.145817   2.872528
     9    8 O      -0.563096      1.863613   4.699483
    10    7 N      -0.302195      1.383749   3.918446
    11    6 C      -0.131409      1.146564   2.984845
    12    6 C       0.395496      1.109767   2.494737
    13    6 C      -0.214880      1.156466   3.058414
    14    6 C      -0.066070      1.132345   2.933726
    15    8 O      -0.571887      1.859988   4.711899
    16    6 C       0.504452      1.097247   2.398301
    17    7 N      -0.307545      1.361438   3.946107
    18    8 O      -0.699776      1.866604   4.833172
    19    8 O      -0.677900      1.859804   4.818096
    20    6 C       0.402292      1.097482   2.500226
    21    6 C       0.001569      1.102160   2.896270
    22    8 O      -0.546957      1.859680   4.687277
    23    7 N      -0.300253      1.347598   3.952655
    24    6 C      -0.269166      1.176088   3.093078
    25    6 C       0.407919      1.109847   2.482234
    26    6 C      -0.052778      1.145546   2.907232
    27    8 O      -0.555502      1.856162   4.699340
    28    7 N      -0.346073      1.359871   3.986202
    29    6 C       0.400285      1.120149   2.479566
    30    8 O      -0.565861      1.856810   4.709051
    31    6 C      -0.174438      1.131922   3.042516
    32    6 C      -0.087158      1.126475   2.960683
    33    6 C      -0.038450      1.159527   2.878923
    34    6 C      -0.047379      1.116688   2.930691
    35    7 N      -0.247235      1.346447   3.900788
    36    6 C       0.070499      1.090769   2.838732
    37    6 C      -0.107487      1.140057   2.967430
    38    6 C      -0.161167      1.147333   3.013834
    39    6 C      -0.115839      1.134638   2.981201
    40    6 C      -0.110413      1.145602   2.964812
    41    1 H       0.269713      0.730287
    42    1 H       0.158004      0.841996
    43    1 H       0.122832      0.877168
    44    1 H       0.271474      0.728526
    45    1 H       0.123376      0.876624
    46    1 H       0.130711      0.869289
    47    1 H       0.284236      0.715764
    48    1 H       0.110112      0.889888
    49    1 H       0.116464      0.883536
    50    1 H       0.069268      0.930732
    51    1 H       0.076897      0.923103
    52    1 H       0.117492      0.882508
    53    1 H       0.107415      0.892585
    54    1 H       0.281930      0.718070
    55    1 H       0.114047      0.885953
    56    1 H       0.265017      0.734983
    57    1 H       0.095920      0.904080
    58    1 H       0.099605      0.900395
    59    1 H       0.111797      0.888203
    60    1 H       0.123379      0.876621
    61    1 H       0.106244      0.893756
    62    1 H       0.292302      0.707698
    63    1 H       0.113201      0.886799
    64    1 H       0.142670      0.857330
    65    1 H       0.137753      0.862247
    66    1 H       0.260080      0.739920
    67    1 H       0.112877      0.887123
    68    1 H       0.120387      0.879613
    69    1 H       0.095810      0.904190
    70    1 H       0.096900      0.903100
------------------------------------------------------


Wiberg/Mayer (AO) data.
largest (>0.10) Wiberg bond orders for each atom

 ---------------------------------------------------------------------------
     #   Z sym  total        # sym  WBO       # sym  WBO       # sym  WBO
 ---------------------------------------------------------------------------
     1   7 N    3.348 --     7 C    1.256     2 C    0.975    41 O    0.890
                             9 C    0.154
     2   6 C    3.916 --     1 N    0.975     3 C    0.946    43 O    0.944
                            42 O    0.940
     3   6 C    3.865 --     4 C    1.660     5 N    1.187     2 C    0.946
     4   8 C    1.947 --     3 C    1.660     5 N    0.153
     5   7 N    3.317 --     3 C    1.187     6 C    0.984    44 O    0.890
                             4 C    0.153
     6   6 C    3.937 --     5 N    0.984    31 C    0.964    45 O    0.940
                            29 C    0.920
     7   6 C    3.866 --     9 C    1.606     1 N    1.256     8 C    0.929
     8   6 C    3.903 --    10 N    0.952    11 C    0.947     7 C    0.929
                            46 O    0.920
     9   8 C    1.893 --     7 C    1.606     1 N    0.154
    10   7 N    3.370 --    12 C    1.296     8 C    0.952    47 O    0.875
                            15 C    0.170
    11   6 C    3.945 --    13 C    1.034    48 O    0.952     8 C    0.947
                            49 O    0.936
    12   6 C    3.880 --    15 C    1.597    10 N    1.296    14 C    0.933
    13   6 C    3.959 --    11 C    1.034    50 O    0.962    51 O    0.961
                            16 C    0.870
    14   6 C    3.922 --    17 N    0.992    53 O    0.948    52 O    0.942
                            12 C    0.933
    15   8 C    1.898 --    12 C    1.597    10 N    0.170
    16   6 C    3.859 --    19 C    1.505    18 C    1.458    13 C    0.870
    17   7 N    3.351 --    20 C    1.239    14 C    0.992    54 O    0.881
                            22 C    0.169
    18   8 C    1.733 --    16 C    1.458    19 C    0.198
    19   8 C    1.780 --    16 C    1.505    18 C    0.198
    20   6 C    3.888 --    22 C    1.636    17 N    1.239    21 C    0.940
    21   6 C    3.943 --    24 C    0.998    23 N    0.970    20 C    0.940
                            55 O    0.934
    22   8 C    1.913 --    20 C    1.636    17 N    0.169
    23   7 N    3.375 --    25 C    1.276    21 C    0.970    56 O    0.892
                            27 C    0.153
    24   6 C    3.950 --    21 C    0.998    58 O    0.973    57 O    0.972
                            59 O    0.968
    25   6 C    3.858 --    27 C    1.625    23 N    1.276    26 C    0.885
    26   6 C    3.925 --    28 N    1.008    61 O    0.954    60 O    0.953
                            25 C    0.885
    27   8 C    1.910 --    25 C    1.625    23 N    0.153
    28   7 N    3.312 --    29 C    1.207    26 C    1.008    62 O    0.876
                            30 C    0.145
    29   6 C    3.860 --    30 C    1.639    28 N    1.207     6 C    0.920
    30   8 C    1.900 --    29 C    1.639    28 N    0.145
    31   6 C    3.957 --    32 C    1.025     6 C    0.964    63 O    0.950
                            64 O    0.944
    32   6 C    3.955 --    33 C    1.586    34 C    1.165    31 C    1.025
    33   6 C    3.910 --    32 C    1.586    35 N    1.173    65 O    0.951
    34   6 C    3.975 --    37 C    1.383    36 C    1.225    32 C    1.165
    35   7 N    3.454 --    33 C    1.173    36 C    1.161    66 O    0.900
    36   6 C    3.946 --    38 C    1.374    34 C    1.225    35 N    1.161
    37   6 C    3.969 --    39 C    1.442    34 C    1.383    67 O    0.948
                            38 C    0.124
    38   6 C    3.962 --    40 C    1.431    36 C    1.374    68 O    0.953
                            37 C    0.124
    39   6 C    3.971 --    37 C    1.442    40 C    1.429    69 O    0.953
    40   6 C    3.969 --    38 C    1.431    39 C    1.429    70 O    0.956
    41   1 O    0.927 --     1 N    0.890
    42   1 O    0.975 --     2 C    0.940
    43   1 O    0.985 --     2 C    0.944
    44   1 O    0.926 --     5 N    0.890
    45   1 O    0.985 --     6 C    0.940
    46   1 O    0.983 --     8 C    0.920
    47   1 O    0.919 --    10 N    0.875
    48   1 O    0.988 --    11 C    0.952
    49   1 O    0.986 --    11 C    0.936
    50   1 O    0.995 --    13 C    0.962
    51   1 O    0.994 --    13 C    0.961
    52   1 O    0.986 --    14 C    0.942
    53   1 O    0.988 --    14 C    0.948
    54   1 O    0.921 --    17 N    0.881
    55   1 O    0.987 --    21 C    0.934
    56   1 O    0.930 --    23 N    0.892
    57   1 O    0.991 --    24 C    0.972
    58   1 O    0.990 --    24 C    0.973
    59   1 O    0.988 --    24 C    0.968
    60   1 O    0.985 --    26 C    0.953
    61   1 O    0.989 --    26 C    0.954
    62   1 O    0.915 --    28 N    0.876
    63   1 O    0.987 --    31 C    0.950
    64   1 O    0.980 --    31 C    0.944
    65   1 O    0.981 --    33 C    0.951
    66   1 O    0.932 --    35 N    0.900
    67   1 O    0.987 --    37 C    0.948
    68   1 O    0.986 --    38 C    0.953
    69   1 O    0.991 --    39 C    0.953
    70   1 O    0.991 --    40 C    0.956
 ---------------------------------------------------------------------------

Topologies differ in total number of bonds
Writing topology from bond orders to xtbtopo.mol

Atomic dipole moments (in atomic units):
---------------------------------------------------------
     #    Z                 x            y            z
---------------------------------------------------------
           total     5.022343    10.667179    10.090115
---------------------------------------------------------
         |total|    15.518475    39.444028 Debye


           -------------------------------------------------
          | TOTAL ENERGY            -1955.974910815830 Eh   |
          | GRADIENT NORM               0.354519958278 Eh/α |
           -------------------------------------------------

------------------------------------------------------------------------
 * finished run on 2026/05/23 at 08:15:16.454     
------------------------------------------------------------------------
 total:
 * wall-time:     0 d,  0 h,  0 min,  8.843 sec
 *  cpu-time:     0 d,  0 h,  0 min, 17.279 sec
 * ratio c/w:     1.954 speedup
 SCF:
 * wall-time:     0 d,  0 h,  0 min,  8.391 sec
 *  cpu-time:     0 d,  0 h,  0 min, 17.036 sec
 * ratio c/w:     2.030 speedup

normal termination of xtb
