      -----------------------------------------------------------      
     |                   =====================                   |     
     |                           x T B                           |     
     |                   =====================                   |     
     |                         S. Grimme                         |     
     |          Mulliken Center for Theoretical Chemistry        |     
     |                    University of Bonn                     |     
      -----------------------------------------------------------      

   * xtb version 6.7.1 (edcfbbe) compiled by 'albert@albert-system' on 2024-07-22

   xtb is free software: you can redistribute it and/or modify it under
   the terms of the GNU Lesser General Public License as published by
   the Free Software Foundation, either version 3 of the License, or
   (at your option) any later version.
   
   xtb is distributed in the hope that it will be useful,
   but WITHOUT ANY WARRANTY; without even the implied warranty of
   MERCHANTABILITY or FITNESS FOR A PARTICULAR PURPOSE.  See the
   GNU Lesser General Public License for more details.
   
   Cite this work as:
   * C. Bannwarth, E. Caldeweyher, S. Ehlert, A. Hansen, P. Pracht,
     J. Seibert, S. Spicher, S. Grimme, WIREs Comput. Mol. Sci., 2020, 11,
     e01493. DOI: 10.1002/wcms.1493
   
   for GFN2-xTB:
   * C. Bannwarth, S. Ehlert and S. Grimme., J. Chem. Theory Comput., 2019,
     15, 1652-1671. DOI: 10.1021/acs.jctc.8b01176
   for GFN1-xTB:
   * S. Grimme, C. Bannwarth, P. Shushkov, J. Chem. Theory Comput., 2017,
     13, 1989-2009. DOI: 10.1021/acs.jctc.7b00118
   for GFN0-xTB:
   * P. Pracht, E. Caldeweyher, S. Ehlert, S. Grimme, ChemRxiv, 2019, preprint.
     DOI: 10.26434/chemrxiv.8326202.v1
   for GFN-FF:
   * S. Spicher and S. Grimme, Angew. Chem. Int. Ed., 2020, 59, 15665-15673.
     DOI: 10.1002/anie.202004239
   
   for ALPB and GBSA implicit solvation:
   * S. Ehlert, M. Stahn, S. Spicher, S. Grimme, J. Chem. Theory Comput.,
     2021, 17, 4250-4261. DOI: 10.1021/acs.jctc.1c00471
   
   for ddCOSMO and CPCM-X implicit solvation:
   * M. Stahn, S. Ehlert, S. Grimme, J. Phys. Chem. A,
     2023, XX, XXXX-XXXX. DOI: 10.1021/acs.jpca.3c04382
   
   for DFT-D4:
   * E. Caldeweyher, C. Bannwarth and S. Grimme, J. Chem. Phys., 2017,
     147, 034112. DOI: 10.1063/1.4993215
   * E. Caldeweyher, S. Ehlert, A. Hansen, H. Neugebauer, S. Spicher,
     C. Bannwarth and S. Grimme, J. Chem. Phys., 2019, 150, 154122.
     DOI: 10.1063/1.5090222
   * E. Caldeweyher, J.-M. Mewes, S. Ehlert and S. Grimme, Phys. Chem. Chem. Phys.
     2020, 22, 8499-8512. DOI: 10.1039/D0CP00502A
   
   for sTDA-xTB:
   * S. Grimme and C. Bannwarth, J. Chem. Phys., 2016, 145, 054103.
     DOI: 10.1063/1.4959605
   
   in the mass-spec context:
   * V. Asgeirsson, C. Bauer and S. Grimme, Chem. Sci., 2017, 8, 4879.
     DOI: 10.1039/c7sc00601b
   * J. Koopman and S. Grimme, ACS Omega 2019, 4, 12, 15120-15133.
     DOI: 10.1021/acsomega.9b02011
   
   for metadynamics refer to:
   * S. Grimme, J. Chem. Theory Comput., 2019, 155, 2847-2862
     DOI: 10.1021/acs.jctc.9b00143
   
   for SPH calculations refer to:
   * S. Spicher and S. Grimme, J. Chem. Theory Comput., 2021, 17, 1701-1714
     DOI: 10.1021/acs.jctc.0c01306
   
   for ONIOM refer to:
   * C. Plett, A. Katbashev, S. Ehlert, S. Grimme, M. Bursch,
     Phys. Chem. Chem. Phys., 2023, 25, 17860-17868. DOI: 10.1039/D3CP02178E
   
   for DIPRO refer to:
   * J. Kohn, N. Gildemeister, S. Grimme, D. Fazzi, A. Hansen,
     J. Chem. Phys., 2023, just accepted.
   
   for PTB refer to:
   * S. Grimme, M. Mueller, A. Hansen, J. Chem. Phys., 2023, 158, 124111.
     DOI: 10.1063/5.0137838
   
   with help from (in alphabetical order)
   P. Atkinson, C. Bannwarth, F. Bohle, G. Brandenburg, E. Caldeweyher
   M. Checinski, S. Dohm, S. Ehlert, S. Ehrlich, I. Gerasimov, C. Hölzer
   A. Katbashev, J. Kohn, J. Koopman, C. Lavigne, S. Lehtola, F. März, M. Müller,
   F. Musil, H. Neugebauer, J. Pisarek, C. Plett, P. Pracht, F. Pultar,
   J. Seibert, P. Shushkov, S. Spicher, M. Stahn, M. Steiner, T. Strunk,
   J. Stückrath, T. Rose, and J. Unsleber
   
 * started run on 2026/05/23 at 12:26:24.997     
   ID    Z sym.   atoms
    1    7 N      1, 5, 10, 17, 22, 26, 27, 33, 41
    2    6 C      2, 3, 6-8, 11-14, 16, 18-21, 23, 28-30, 34-39
    3    8 O      4, 9, 15, 24, 25, 31, 32, 40
    4    1 H      42-82

           -------------------------------------------------
          |                Calculation Setup                |
           -------------------------------------------------

          program call               : /home/xchen/software/xtb-6.7.1/xtb-dist/bin/xtb /home/xchen/Test/benchmark/md_sampled/09_5_0584_0/snap_0026.xyz --charge 0 --gfn 2 --norestart
          coordinate file            : /home/xchen/Test/benchmark/md_sampled/09_5_0584_0/snap_0026.xyz
          omp threads                :                    48


           -------------------------------------------------
          |                 G F N 2 - x T B                 |
           -------------------------------------------------

        Reference                      10.1021/acs.jctc.8b01176
      * Hamiltonian:
        H0-scaling (s, p, d)           1.850000    2.230000    2.230000
        zeta-weighting                 0.500000
      * Dispersion:
        s8                             2.700000
        a1                             0.520000
        a2                             5.000000
        s9                             5.000000
      * Repulsion:
        kExp                           1.500000    1.000000
        rExp                           1.000000
      * Coulomb:
        alpha                          2.000000
        third order                    shell-resolved
        anisotropic                    true
        a3                             3.000000
        a5                             4.000000
        cn-shift                       1.200000
        cn-exp                         4.000000
        max-rad                        5.000000


          ...................................................
          :                      SETUP                      :
          :.................................................:
          :  # basis functions                 205          :
          :  # atomic orbitals                 205          :
          :  # shells                          123          :
          :  # electrons                       230          :
          :  max. iterations                   250          :
          :  Hamiltonian                  GFN2-xTB          :
          :  restarted?                      false          :
          :  GBSA solvation                  false          :
          :  PC potential                    false          :
          :  electronic temp.          300.0000000     K    :
          :  accuracy                    1.0000000          :
          :  -> integral cutoff          0.2500000E+02      :
          :  -> integral neglect         0.1000000E-07      :
          :  -> SCF convergence          0.1000000E-05 Eh   :
          :  -> wf. convergence          0.1000000E-03 e    :
          :  Broyden damping             0.4000000          :
          :  net charge                          0          :
          :  unpaired electrons                  0          :
          ...................................................

 iter      E             dE          RMSdq      gap      omega  full diag
   1   -132.0820023 -0.132082E+03  0.424E+00    3.77       0.0  T
   2   -132.4600054 -0.378003E+00  0.220E+00    3.56       1.0  T
   3   -132.4780609 -0.180554E-01  0.126E+00    3.60       1.0  T
   4   -132.4811253 -0.306445E-02  0.282E-01    3.09       1.0  T
   5   -132.4862269 -0.510161E-02  0.958E-02    3.17       1.0  T
   6   -132.4862686 -0.416950E-04  0.432E-02    3.16       1.0  T
   7   -132.4862966 -0.280004E-04  0.172E-02    3.16       1.0  T
   8   -132.4863023 -0.568163E-05  0.583E-03    3.17       1.9  T
   9   -132.4863027 -0.397661E-06  0.258E-03    3.17       4.3  T
  10   -132.4863028 -0.862406E-07  0.934E-04    3.17      11.8  T
  11   -132.4863028 -0.198195E-07  0.334E-04    3.17      33.0  T

   *** convergence criteria satisfied after 11 iterations ***

         #    Occupation            Energy/Eh            Energy/eV
      -------------------------------------------------------------
         1        2.0000           -0.7334860             -19.9592
       ...           ...                  ...                  ...
       109        2.0000           -0.4106243             -11.1737
       110        2.0000           -0.4089227             -11.1274
       111        2.0000           -0.4065732             -11.0634
       112        2.0000           -0.4060926             -11.0503
       113        2.0000           -0.4015407             -10.9265
       114        2.0000           -0.3966978             -10.7947
       115        2.0000           -0.3752626             -10.2114 (HOMO)
       116                         -0.2589492              -7.0464 (LUMO)
       117                         -0.2570636              -6.9951
       118                         -0.2558194              -6.9612
       119                         -0.2454389              -6.6787
       120                         -0.2430978              -6.6150
       ...                                ...                  ...
       205                          0.6255839              17.0230
      -------------------------------------------------------------
                  HL-Gap            0.1163134 Eh            3.1650 eV
             Fermi-level           -0.3171059 Eh           -8.6289 eV

 SCC (total)                   0 d,  0 h,  0 min, 11.713 sec
 SCC setup                      ...        0 min,  0.055 sec (  0.468%)
 Dispersion                     ...        0 min,  0.075 sec (  0.644%)
 classical contributions        ...        0 min,  0.009 sec (  0.075%)
 integral evaluation            ...        0 min,  0.293 sec (  2.500%)
 iterations                     ...        0 min, 10.083 sec ( 86.089%)
 molecular gradient             ...        0 min,  1.158 sec (  9.888%)
 printout                       ...        0 min,  0.039 sec (  0.335%)

         :::::::::::::::::::::::::::::::::::::::::::::::::::::
         ::                     SUMMARY                     ::
         :::::::::::::::::::::::::::::::::::::::::::::::::::::
         :: total energy            -131.103946561372 Eh    ::
         :: gradient norm              0.301093229218 Eh/a0 ::
         :: HOMO-LUMO gap              3.165049301191 eV    ::
         ::.................................................::
         :: SCC energy              -132.483396239826 Eh    ::
         :: -> isotropic ES            0.315209526812 Eh    ::
         :: -> anisotropic ES          0.013366516265 Eh    ::
         :: -> anisotropic XC          0.045341728443 Eh    ::
         :: -> dispersion             -0.090656950421 Eh    ::
         :: repulsion energy           1.379449678454 Eh    ::
         :: add. restraining           0.000000000000 Eh    ::
         :: total charge              -0.000000000000 e     ::
         :::::::::::::::::::::::::::::::::::::::::::::::::::::

           -------------------------------------------------
          |                Property Printout                |
           -------------------------------------------------

    * Orbital Energies and Occupations

         #    Occupation            Energy/Eh            Energy/eV
      -------------------------------------------------------------
         1        2.0000           -0.7334860             -19.9592
       ...           ...                  ...                  ...
       103        2.0000           -0.4400719             -11.9750
       104        2.0000           -0.4347426             -11.8299
       105        2.0000           -0.4238191             -11.5327
       106        2.0000           -0.4231091             -11.5134
       107        2.0000           -0.4215068             -11.4698
       108        2.0000           -0.4194697             -11.4144
       109        2.0000           -0.4106243             -11.1737
       110        2.0000           -0.4089227             -11.1274
       111        2.0000           -0.4065732             -11.0634
       112        2.0000           -0.4060926             -11.0503
       113        2.0000           -0.4015407             -10.9265
       114        2.0000           -0.3966978             -10.7947
       115        2.0000           -0.3752626             -10.2114 (HOMO)
       116                         -0.2589492              -7.0464 (LUMO)
       117                         -0.2570636              -6.9951
       118                         -0.2558194              -6.9612
       119                         -0.2454389              -6.6787
       120                         -0.2430978              -6.6150
       121                         -0.2426383              -6.6025
       122                         -0.2279029              -6.2016
       123                         -0.2225305              -6.0554
       124                         -0.0745178              -2.0277
       125                         -0.0702747              -1.9123
       126                         -0.0572631              -1.5582
       ...                                ...                  ...
       205                          0.6255839              17.0230
      -------------------------------------------------------------
                  HL-Gap            0.1163134 Eh            3.1650 eV
             Fermi-level           -0.3171059 Eh           -8.6289 eV

     #   Z          covCN         q      C6AA      α(0)
     1   7 N        2.690    -0.174    24.755     7.390
     2   6 C        3.781     0.013    20.379     6.431
     3   6 C        2.749     0.262    22.576     7.780
     4   8 O        0.858    -0.436    22.408     6.347
     5   7 N        2.690    -0.176    24.801     7.396
     6   6 C        3.782     0.032    20.059     6.380
     7   6 C        2.762     0.267    22.489     7.766
     8   6 C        3.791     0.015    20.330     6.421
     9   8 O        0.862    -0.429    22.273     6.328
    10   7 N        2.681    -0.206    25.482     7.497
    11   6 C        3.796    -0.065    21.755     6.642
    12   6 C        2.750     0.264    22.554     7.777
    13   6 C        3.777    -0.065    21.781     6.649
    14   6 C        3.797     0.028    20.107     6.385
    15   8 O        0.856    -0.409    21.855     6.268
    16   6 C        3.796    -0.074    21.913     6.666
    17   7 N        2.677    -0.171    24.693     7.380
    18   6 C        3.811    -0.102    22.440     6.743
    19   6 C        3.736     0.016    20.388     6.444
    20   6 C        2.759     0.275    22.350     7.742
    21   6 C        2.742     0.286    22.147     7.705
    22   7 N        2.628    -0.348    28.976     7.995
    23   6 C        3.789     0.033    20.038     6.375
    24   8 O        0.859    -0.443    22.567     6.369
    25   8 O        0.861    -0.434    22.366     6.341
    26   7 N        2.649    -0.250    26.504     7.646
    27   7 N        2.680    -0.222    25.850     7.551
    28   6 C        3.792    -0.086    22.144     6.701
    29   6 C        2.755     0.263    22.565     7.779
    30   6 C        2.737     0.283    22.202     7.715
    31   8 O        0.858    -0.422    22.115     6.305
    32   8 O        0.856    -0.386    21.398     6.202
    33   7 N        2.629    -0.308    27.932     7.849
    34   6 C        3.803     0.000    20.573     6.457
    35   6 C        3.737    -0.103    22.554     6.777
    36   6 C        3.751    -0.106    22.579     6.777
    37   6 C        3.800    -0.069    21.816     6.650
    38   6 C        3.816    -0.097    22.327     6.725
    39   6 C        2.744     0.286    22.152     7.706
    40   8 O        0.857    -0.425    22.196     6.317
    41   7 N        2.643    -0.285    27.352     7.767
    42   1 H        0.858     0.190     1.157     1.685
    43   1 H        0.926     0.069     2.100     2.266
    44   1 H        0.855     0.183     1.198     1.715
    45   1 H        0.923     0.078     2.000     2.211
    46   1 H        0.923     0.086     1.916     2.164
    47   1 H        0.859     0.200     1.104     1.646
    48   1 H        0.928     0.047     2.356     2.400
    49   1 H        0.915     0.055     2.257     2.350
    50   1 H        0.922     0.045     2.380     2.413
    51   1 H        0.923     0.040     2.453     2.449
    52   1 H        0.927     0.071     2.079     2.255
    53   1 H        0.925     0.029     2.601     2.522
    54   1 H        0.924     0.038     2.477     2.461
    55   1 H        0.852     0.186     1.180     1.702
    56   1 H        0.912     0.072     2.070     2.250
    57   1 H        0.925     0.058     2.226     2.333
    58   1 H        0.920     0.014     2.826     2.629
    59   1 H        0.927     0.038     2.481     2.463
    60   1 H        0.855     0.140     1.470     1.900
    61   1 H        0.862     0.156     1.359     1.826
    62   1 H        0.917     0.082     1.957     2.188
    63   1 H        0.854     0.199     1.111     1.652
    64   1 H        0.860     0.188     1.171     1.695
    65   1 H        0.860     0.229     0.968     1.542
    66   1 H        0.924     0.074     2.047     2.237
    67   1 H        0.910     0.086     1.920     2.167
    68   1 H        0.861     0.193     1.142     1.674
    69   1 H        0.860     0.184     1.190     1.709
    70   1 H        0.901     0.050     2.329     2.388
    71   1 H        0.927     0.037     2.488     2.466
    72   1 H        0.920     0.032     2.565     2.505
    73   1 H        0.911     0.036     2.500     2.473
    74   1 H        0.922     0.039     2.464     2.455
    75   1 H        0.926     0.066     2.135     2.285
    76   1 H        0.924     0.045     2.382     2.414
    77   1 H        0.923     0.047     2.352     2.398
    78   1 H        0.925     0.065     2.136     2.285
    79   1 H        0.923     0.074     2.045     2.236
    80   1 H        0.922     0.072     2.061     2.245
    81   1 H        0.857     0.184     1.191     1.710
    82   1 H        0.858     0.186     1.179     1.701

 Mol. C6AA /au·bohr⁶  :      63080.457978
 Mol. C8AA /au·bohr⁸  :    1391430.692237
 Mol. α(0) /au        :        374.205531


Wiberg/Mayer (AO) data.
largest (>0.10) Wiberg bond orders for each atom

 ---------------------------------------------------------------------------
     #   Z sym  total        # sym  WBO       # sym  WBO       # sym  WBO
 ---------------------------------------------------------------------------
     1   7 N    3.454 --     7 C    1.278     2 C    0.982    42 H    0.912
                             9 O    0.196
     2   6 C    3.957 --     1 N    0.982     3 C    0.959    43 H    0.952
                            34 C    0.913
     3   6 C    3.948 --     4 O    1.655     5 N    1.253     2 C    0.959
     4   8 O    2.009 --     3 C    1.655     5 N    0.187
     5   7 N    3.452 --     3 C    1.253     6 C    0.978    44 H    0.927
                             4 O    0.187
     6   6 C    3.957 --    37 C    0.990     5 N    0.978    45 H    0.960
                            29 C    0.908
     7   6 C    3.949 --     9 O    1.683     1 N    1.278     8 C    0.910
     8   6 C    3.959 --    11 C    1.004    10 N    0.964    46 H    0.951
                             7 C    0.910
     9   8 O    2.015 --     7 C    1.683     1 N    0.196
    10   7 N    3.399 --    12 C    1.235     8 C    0.964    47 H    0.919
                            15 O    0.195
    11   6 C    3.988 --     8 C    1.004    13 C    0.991    48 H    0.970
                            49 H    0.961
    12   6 C    3.951 --    15 O    1.723    10 N    1.235    14 C    0.911
    13   6 C    3.992 --    16 C    0.997    11 C    0.991    50 H    0.980
                            51 H    0.979
    14   6 C    3.967 --    17 N    0.987    18 C    0.983    52 H    0.953
                            12 C    0.911
    15   8 O    2.040 --    12 C    1.723    10 N    0.195
    16   6 C    3.994 --    19 C    1.002    13 C    0.997    53 H    0.977
                            54 H    0.967
    17   7 N    3.436 --    20 C    1.247    14 C    0.987    55 H    0.933
                            24 O    0.189
    18   6 C    3.991 --    14 C    0.983    57 H    0.966    56 H    0.961
                            21 C    0.944
    19   6 C    3.979 --    22 N    1.030    16 C    1.002    58 H    0.964
                            59 H    0.961
    20   6 C    3.944 --    24 O    1.669    17 N    1.247    23 C    0.944
    21   6 C    3.952 --    25 O    1.682    26 N    1.299    18 C    0.944
    22   7 N    2.997 --    19 C    1.030    61 H    0.958    60 H    0.954
    23   6 C    3.971 --    28 C    0.975    27 N    0.973    62 H    0.947
                            20 C    0.944
    24   8 O    2.004 --    20 C    1.669    17 N    0.189
    25   8 O    2.001 --    21 C    1.682    26 N    0.209
    26   7 N    3.410 --    21 C    1.299    64 H    0.940    63 H    0.931
                            25 O    0.209
    27   7 N    3.325 --    29 C    1.208    23 C    0.973    65 H    0.875
                            31 O    0.170
    28   6 C    3.986 --    23 C    0.975    66 H    0.971    30 C    0.963
                            67 H    0.948
    29   6 C    3.940 --    31 O    1.730    27 N    1.208     6 C    0.908
    30   6 C    3.935 --    32 O    1.784    33 N    1.150    28 C    0.963
    31   8 O    2.025 --    29 C    1.730    27 N    0.170
    32   8 O    2.055 --    30 C    1.784    33 N    0.166
    33   7 N    3.216 --    30 C    1.150    69 H    0.941    68 H    0.928
                            32 O    0.166
    34   6 C    3.982 --    36 C    1.026    35 C    1.015    70 H    0.959
                             2 C    0.913
    35   6 C    3.992 --    34 C    1.015    72 H    0.984    71 H    0.984
                            73 H    0.981
    36   6 C    3.992 --    34 C    1.026    74 H    0.983    75 H    0.978
                            76 H    0.978
    37   6 C    3.990 --    38 C    0.991     6 C    0.990    77 H    0.973
                            78 H    0.963
    38   6 C    3.991 --    39 C    0.991    37 C    0.991    80 H    0.970
                            79 H    0.943
    39   6 C    3.948 --    40 O    1.709    41 N    1.213    38 C    0.991
    40   8 O    1.999 --    39 C    1.709    41 N    0.172
    41   7 N    3.290 --    39 C    1.213    81 H    0.940    82 H    0.928
                            40 O    0.172
    42   1 H    0.964 --     1 N    0.912
    43   1 H    0.995 --     2 C    0.952
    44   1 H    0.966 --     5 N    0.927
    45   1 H    0.993 --     6 C    0.960
    46   1 H    0.992 --     8 C    0.951
    47   1 H    0.960 --    10 N    0.919
    48   1 H    0.998 --    11 C    0.970
    49   1 H    0.996 --    11 C    0.961
    50   1 H    0.998 --    13 C    0.980
    51   1 H    0.998 --    13 C    0.979
    52   1 H    0.995 --    14 C    0.953
    53   1 H    0.999 --    16 C    0.977
    54   1 H    0.999 --    16 C    0.967
    55   1 H    0.965 --    17 N    0.933
    56   1 H    0.995 --    18 C    0.961
    57   1 H    0.996 --    18 C    0.966
    58   1 H    1.000 --    19 C    0.964
    59   1 H    0.999 --    19 C    0.961
    60   1 H    0.980 --    22 N    0.954
    61   1 H    0.976 --    22 N    0.958
    62   1 H    0.993 --    23 C    0.947
    63   1 H    0.960 --    26 N    0.931
    64   1 H    0.965 --    26 N    0.940
    65   1 H    0.947 --    27 N    0.875
    66   1 H    0.995 --    28 C    0.971
    67   1 H    0.992 --    28 C    0.948
    68   1 H    0.963 --    33 N    0.928
    69   1 H    0.965 --    33 N    0.941
    70   1 H    0.997 --    34 C    0.959
    71   1 H    0.999 --    35 C    0.984
    72   1 H    0.999 --    35 C    0.984
    73   1 H    0.998 --    35 C    0.981
    74   1 H    0.998 --    36 C    0.983
    75   1 H    0.996 --    36 C    0.978
    76   1 H    0.997 --    36 C    0.978
    77   1 H    0.997 --    37 C    0.973
    78   1 H    0.996 --    37 C    0.963
    79   1 H    0.995 --    38 C    0.943
    80   1 H    0.995 --    38 C    0.970
    81   1 H    0.966 --    41 N    0.940
    82   1 H    0.965 --    41 N    0.928
 ---------------------------------------------------------------------------

Topologies differ in total number of bonds
Writing topology from bond orders to xtbtopo.mol

molecular dipole:
                 x           y           z       tot (Debye)
 q only:       -1.603       0.632      -2.220
   full:       -1.738       0.554      -1.981       6.845
molecular quadrupole (traceless):
                xx          xy          yy          xz          yz          zz
 q only:       -8.646     -41.452       8.404     -22.450       6.528       0.241
  q+dip:      -14.536     -63.299       5.301     -25.860       8.131       9.235
   full:      -14.503     -63.337       6.374     -25.433       8.349       8.129


           -------------------------------------------------
          | TOTAL ENERGY             -131.103946561372 Eh   |
          | GRADIENT NORM               0.301093229218 Eh/α |
          | HOMO-LUMO GAP               3.165049301191 eV   |
           -------------------------------------------------

------------------------------------------------------------------------
 * finished run on 2026/05/23 at 12:26:37.351     
------------------------------------------------------------------------
 total:
 * wall-time:     0 d,  0 h,  0 min, 12.353 sec
 *  cpu-time:     0 d,  0 h,  0 min, 17.902 sec
 * ratio c/w:     1.449 speedup
 SCF:
 * wall-time:     0 d,  0 h,  0 min, 11.713 sec
 *  cpu-time:     0 d,  0 h,  0 min, 17.475 sec
 * ratio c/w:     1.492 speedup

normal termination of xtb
