      -----------------------------------------------------------      
     |                   =====================                   |     
     |                           x T B                           |     
     |                   =====================                   |     
     |                         S. Grimme                         |     
     |          Mulliken Center for Theoretical Chemistry        |     
     |                    University of Bonn                     |     
      -----------------------------------------------------------      

   * xtb version 6.7.1 (26dd68d) compiled by 'froitzheim@fs7' on 2026-05-14

   xtb is free software: you can redistribute it and/or modify it under
   the terms of the GNU Lesser General Public License as published by
   the Free Software Foundation, either version 3 of the License, or
   (at your option) any later version.
   
   xtb is distributed in the hope that it will be useful,
   but WITHOUT ANY WARRANTY; without even the implied warranty of
   MERCHANTABILITY or FITNESS FOR A PARTICULAR PURPOSE.  See the
   GNU Lesser General Public License for more details.
   
   Cite this work as:
   * C. Bannwarth, E. Caldeweyher, S. Ehlert, A. Hansen, P. Pracht,
     J. Seibert, S. Spicher, S. Grimme, WIREs Comput. Mol. Sci., 2020, 11,
     e01493. DOI: 10.1002/wcms.1493
   
   for g-xTB:
   * T. Froitzheim, M. Müller, A. Hansen, S. Grimme, ChemRxiv, 2025, preprint.
     DOI: 10.26434/chemrxiv-2025-bjxv
   for GFN2-xTB:
   * C. Bannwarth, S. Ehlert and S. Grimme., J. Chem. Theory Comput., 2019,
     15, 1652-1671. DOI: 10.1021/acs.jctc.8b01176
   for GFN1-xTB:
   * S. Grimme, C. Bannwarth, P. Shushkov, J. Chem. Theory Comput., 2017,
     13, 1989-2009. DOI: 10.1021/acs.jctc.7b00118
   for GFN0-xTB:
   * P. Pracht, E. Caldeweyher, S. Ehlert, S. Grimme, ChemRxiv, 2019, preprint.
     DOI: 10.26434/chemrxiv.8326202.v1
   for GFN-FF:
   * S. Spicher and S. Grimme, Angew. Chem. Int. Ed., 2020, 59, 15665-15673.
     DOI: 10.1002/anie.202004239
   
   for ALPB and GBSA implicit solvation:
   * S. Ehlert, M. Stahn, S. Spicher, S. Grimme, J. Chem. Theory Comput.,
     2021, 17, 4250-4261. DOI: 10.1021/acs.jctc.1c00471
   
   for ddCOSMO and CPCM-X implicit solvation:
   * M. Stahn, S. Ehlert, S. Grimme, J. Phys. Chem. A,
     2023, XX, XXXX-XXXX. DOI: 10.1021/acs.jpca.3c04382
   
   for DFT-D4:
   * E. Caldeweyher, C. Bannwarth and S. Grimme, J. Chem. Phys., 2017,
     147, 034112. DOI: 10.1063/1.4993215
   * E. Caldeweyher, S. Ehlert, A. Hansen, H. Neugebauer, S. Spicher,
     C. Bannwarth and S. Grimme, J. Chem. Phys., 2019, 150, 154122.
     DOI: 10.1063/1.5090222
   * E. Caldeweyher, J.-M. Mewes, S. Ehlert and S. Grimme, Phys. Chem. Chem. Phys.
     2020, 22, 8499-8512. DOI: 10.1039/D0CP00502A
   
   for sTDA-xTB:
   * S. Grimme and C. Bannwarth, J. Chem. Phys., 2016, 145, 054103.
     DOI: 10.1063/1.4959605
   
   in the mass-spec context:
   * V. Asgeirsson, C. Bauer and S. Grimme, Chem. Sci., 2017, 8, 4879.
     DOI: 10.1039/c7sc00601b
   * J. Koopman and S. Grimme, ACS Omega 2019, 4, 12, 15120-15133.
     DOI: 10.1021/acsomega.9b02011
   
   for metadynamics refer to:
   * S. Grimme, J. Chem. Theory Comput., 2019, 155, 2847-2862
     DOI: 10.1021/acs.jctc.9b00143
   
   for SPH calculations refer to:
   * S. Spicher and S. Grimme, J. Chem. Theory Comput., 2021, 17, 1701-1714
     DOI: 10.1021/acs.jctc.0c01306
   
   for ONIOM refer to:
   * C. Plett, A. Katbashev, S. Ehlert, S. Grimme, M. Bursch,
     Phys. Chem. Chem. Phys., 2023, 25, 17860-17868. DOI: 10.1039/D3CP02178E
   
   for DIPRO refer to:
   * J. Kohn, N. Gildemeister, S. Grimme, D. Fazzi, A. Hansen,
     J. Chem. Phys. 159, 144106 (2023). DOI: 10.1063/5.0167484
   
   for PTB refer to:
   * S. Grimme, M. Mueller, A. Hansen, J. Chem. Phys., 2023, 158, 124111.
     DOI: 10.1063/5.0137838
   
   with help from (in alphabetical order)
   P. Atkinson, C. Bannwarth, F. Bohle, G. Brandenburg, E. Caldeweyher,
   M. Checinski, S. Dohm, S. Ehlert, S. Ehrlich, M. Friede, T. Froitzheim,
   I. Gerasimov, C. Hölzer, A. Katbashev, J. Kohn, J. Koopman, C. Lavigne,
   S. Lehtola, F. März, M. Müller, F. Musil, H. Neugebauer, J. Pisarek,
   C. Plett, P. Pracht, F. Pultar, J. Seibert, P. Shushkov, S. Spicher,
   M. Stahn, M. Steiner, T. Strunk, J. Stückrath, T. Rose, and J. Unsleber
   
 * started run on 2026/05/23 at 08:18:09.837     
   ID    Z sym.   atoms
    1    7 N      1, 5, 10, 16, 18, 21, 27, 34, 42, 50
    2    6 C      2, 3, 6-8, 11-14, 17, 19, 20, 22-25, 28-31, 35-38, 40, 43,
                  44, 46-48
    3    8 O      4, 9, 15, 26, 32, 39, 41, 49
    4   16 S      33, 45
    5    1 H      51-96

           -------------------------------------------------
          |                Calculation Setup                |
           -------------------------------------------------

          program call               : /home/xchen/software/xtb-6.7.1-gxtb/bin/xtb /home/xchen/Test/benchmark/md_sampled/02_6_0901_0/snap_0115.xyz --charge 0 --gxtb --norestart
          coordinate file            : /home/xchen/Test/benchmark/md_sampled/02_6_0901_0/snap_0115.xyz
          omp threads                :                    48

core increment energy         -2.8923536237342E+03 Eh
dispersion energy              2.4577332577436E-02 Eh
molecular charge               0.0000000000000E+00 e
number of electrons            2.7599999999751E+02 e
number of unpaired electrons   0.0000000000000E+00 e
wavefunction                   restricted
integral cutoff                2.6907767250513E+01 bohr
energy convergence             1.0000000000000E-06 Eh
density convergence            2.0000000000000E-05 e

------------------------------------------------------------
  cycle        total energy    energy error   density error
------------------------------------------------------------
      1     -3115.425792629  -2.2309675E+02   0.0000000E+00
      2     -3115.847487161  -4.2169453E-01   2.0235753E-02
      3     -3116.110166835  -2.6267967E-01   1.5887951E-02
      4     -3116.650657794  -5.4049096E-01   1.2551995E-02
      5     -3116.660567130  -9.9093359E-03   9.3560917E-04
      6     -3116.661235004  -6.6787379E-04   1.6032095E-04
      7     -3116.661293227  -5.8223298E-05   5.1601910E-05
      8     -3116.661298840  -5.6129967E-06   1.8105188E-05
      9     -3116.661299753  -9.1296380E-07   3.9799315E-06
------------------------------------------------------------

electronic energy             -2.2433225335173E+02 Eh
total energy                  -3.1166612997534E+03 Eh

Post processing:
 | Mayer-Wiberg bond orders
 | Molecular Multipole Moments

 total:                                  15.659 sec
 - increment                              0.000 sec (  0%)
 - repulsion                              0.009 sec (  0%)
 - dispersion                             0.386 sec (  2%)
 - coulomb                                0.246 sec (  1%)
 - exchange                               0.013 sec (  0%)
 - hamiltonian                            0.401 sec (  2%)
 - acp                                    1.064 sec (  6%)
 - spin polarization                      0.000 sec (  0%)
 - post processing                        0.148 sec (  0%)
 - scc                                   11.611 sec ( 74%)
 - coulomb gradient                       0.097 sec (  0%)
 - dispersion gradient                    0.186 sec (  1%)
 - exchange gradient                      0.560 sec (  3%)
 - repulsion gradient                     0.012 sec (  0%)
 - acp gradient                           0.533 sec (  3%)
 - hamiltonian gradient                   0.510 sec (  3%)
 - gradient                               1.898 sec ( 12%)

         :::::::::::::::::::::::::::::::::::::::::::::::::::::
         ::                     SUMMARY                     ::
         :::::::::::::::::::::::::::::::::::::::::::::::::::::
         :: total energy           -3116.661299753353 Eh    ::
         :: gradient norm              0.372503285046 Eh/a0 ::
         :: HOMO-LUMO gap              8.605288826536 eV    ::
         ::.................................................::
         :: add. restraining           0.000000000000 Eh    ::
         :: total charge              -0.000000000000 e     ::
         :::::::::::::::::::::::::::::::::::::::::::::::::::::

           -------------------------------------------------
          |                Property Printout                |
           -------------------------------------------------

    * Orbital Energies and Occupations
------------------------------------------------------------------
      #    Occupation            Energy/Eh            Energy/eV
------------------------------------------------------------------
      1        2.0000           -1.3644496             -37.1286
    ...           ...                  ...                  ...
    126        2.0000           -0.3822198             -10.4007
    127        2.0000           -0.3808293             -10.3629
    128        2.0000           -0.3781669             -10.2904
    129        2.0000           -0.3642253              -9.9111
    130        2.0000           -0.3633788              -9.8880
    131        2.0000           -0.3588703              -9.7654
    132        2.0000           -0.3583041              -9.7500
    133        2.0000           -0.3563427              -9.6966
    134        2.0000           -0.3547455              -9.6531
    135        2.0000           -0.3523776              -9.5887
    136        2.0000           -0.3519896              -9.5781
    137        2.0000           -0.3494231              -9.5083
    138        2.0000           -0.3311474              -9.0110 (HOMO)
    139                         -0.0149089              -0.4057 (LUMO)
    140                         -0.0016519              -0.0450
    141                          0.0120850               0.3288
    142                          0.0155948               0.4244
    143                          0.0191323               0.5206
    144                          0.0214382               0.5834
    145                          0.0221696               0.6033
    146                          0.0242350               0.6595
    147                          0.0267474               0.7278
    148                          0.0382114               1.0398
    149                          0.0433592               1.1799
    ...                                ...                  ...
    256                          0.7618418              20.7308
------------------------------------------------------------------
               HL-Gap            0.3162385 Eh            8.6053 eV
------------------------------------------------------------------

Atomic charges and shell populations (in atomic units):
-----------------------------------------------------------------
     #    Z                q          p(s)       p(p)       p(d)
-----------------------------------------------------------------
     1    7 N      -0.350728      1.360464   3.990264
     2    6 C      -0.020543      1.090492   2.930051
     3    6 C       0.415801      1.110356   2.473843
     4    8 O      -0.521200      1.859946   4.661255
     5    7 N      -0.346641      1.382173   3.964467
     6    6 C       0.000892      1.113949   2.885160
     7    6 C       0.407840      1.105767   2.486393
     8    6 C       0.024228      1.104061   2.871711
     9    8 O      -0.526680      1.849960   4.676719
    10    7 N      -0.335199      1.339006   3.996193
    11    6 C      -0.171667      1.130280   3.041387
    12    6 C       0.434965      1.080994   2.484041
    13    6 C       0.007923      1.118676   2.873402
    14    6 C       0.009796      1.143755   2.846449
    15    8 O      -0.523673      1.851896   4.671777
    16    7 N      -0.366392      1.568726   3.797666
    17    6 C      -0.097905      1.153242   2.944664
    18    7 N      -0.285266      1.373781   3.911486
    19    6 C      -0.172064      1.141512   3.030552
    20    6 C       0.066414      1.114404   2.819182
    21    7 N      -0.198597      1.355977   3.842621
    22    6 C      -0.073596      1.134414   2.939182
    23    6 C       0.408879      1.101932   2.489189
    24    6 C      -0.183414      1.162510   3.020904
    25    6 C       0.029379      1.120874   2.849747
    26    8 O      -0.533686      1.856893   4.676793
    27    7 N      -0.374992      1.365978   4.009013
    28    6 C      -0.174446      1.160001   3.014445
    29    6 C       0.414927      1.094764   2.490309
    30    6 C      -0.117996      1.193237   2.924759
    31    6 C       0.023106      1.127914   2.848980
    32    8 O      -0.513543      1.852754   4.660789
    33   16 S      -0.245544      1.900654   4.282013   0.062877
    34    7 N      -0.329121      1.376673   3.952448
    35    6 C      -0.171124      1.137797   3.033327
    36    6 C      -0.169705      1.202843   2.966862
    37    6 C       0.396120      1.090541   2.513340
    38    6 C      -0.196120      1.162638   3.033482
    39    8 O      -0.577625      1.855126   4.722500
    40    6 C       0.407576      1.093763   2.498661
    41    8 O      -0.540283      1.857077   4.683207
    42    7 N      -0.404938      1.376450   4.028488
    43    6 C      -0.147332      1.143440   3.003892
    44    6 C      -0.133091      1.172664   2.960427
    45   16 S      -0.213824      1.887963   4.254037   0.071824
    46    6 C      -0.199445      1.174476   3.024969
    47    6 C      -0.191134      1.169869   3.021265
    48    6 C       0.389136      1.114518   2.496345
    49    8 O      -0.518470      1.857994   4.660475
    50    7 N      -0.423658      1.393834   4.029824
    51    1 H       0.283158      0.716842
    52    1 H       0.139435      0.860565
    53    1 H       0.244290      0.755710
    54    1 H       0.167294      0.832706
    55    1 H       0.136405      0.863595
    56    1 H       0.278055      0.721945
    57    1 H       0.112995      0.887005
    58    1 H       0.129571      0.870429
    59    1 H       0.167199      0.832801
    60    1 H       0.179976      0.820024
    61    1 H       0.115338      0.884662
    62    1 H       0.101672      0.898328
    63    1 H       0.124403      0.875597
    64    1 H       0.277247      0.722753
    65    1 H       0.098668      0.901332
    66    1 H       0.097544      0.902456
    67    1 H       0.093033      0.906967
    68    1 H       0.100773      0.899227
    69    1 H       0.152583      0.847417
    70    1 H       0.260445      0.739555
    71    1 H       0.108446      0.891554
    72    1 H       0.098502      0.901498
    73    1 H       0.114175      0.885825
    74    1 H       0.108152      0.891848
    75    1 H       0.133713      0.866287
    76    1 H       0.292630      0.707370
    77    1 H       0.105451      0.894549
    78    1 H       0.145967      0.854033
    79    1 H       0.118841      0.881159
    80    1 H       0.106482      0.893518
    81    1 H       0.093544      0.906456
    82    1 H       0.144724      0.855276
    83    1 H       0.097351      0.902649
    84    1 H       0.248347      0.751653
    85    1 H       0.242499      0.757501
    86    1 H       0.108836      0.891164
    87    1 H       0.091602      0.908398
    88    1 H       0.140658      0.859342
    89    1 H       0.121768      0.878232
    90    1 H       0.109101      0.890899
    91    1 H       0.079143      0.920857
    92    1 H       0.091312      0.908688
    93    1 H       0.095089      0.904911
    94    1 H       0.146566      0.853434
    95    1 H       0.266354      0.733646
    96    1 H       0.243327      0.756673
-----------------------------------------------------------------


Wiberg/Mayer (AO) data.
largest (>0.10) Wiberg bond orders for each atom

 ---------------------------------------------------------------------------
     #   Z sym  total        # sym  WBO       # sym  WBO       # sym  WBO
 ---------------------------------------------------------------------------
     1   7 N    3.302 --     7 C    1.196     2 C    0.990    51 N    0.839
                             9 C    0.153
     2   6 C    3.945 --     1 N    0.990    43 C    0.982     3 C    0.929
                            52 N    0.923
     3   6 C    3.867 --     4 C    1.666     5 N    1.183     2 C    0.929
     4   8 C    1.943 --     3 C    1.666     5 N    0.157
     5   7 N    3.293 --     3 C    1.183     6 C    0.955    53 N    0.898
                             4 C    0.157
     6   6 C    3.933 --    47 C    0.987     5 N    0.955    37 C    0.948
                            54 N    0.917
     7   6 C    3.868 --     9 C    1.677     1 N    1.196     8 C    0.917
     8   6 C    3.938 --    11 C    0.981    10 N    0.974    55 N    0.932
                             7 C    0.917
     9   8 C    1.957 --     7 C    1.677     1 N    0.153
    10   7 N    3.330 --    12 C    1.219     8 C    0.974    56 N    0.863
                            15 C    0.166
    11   6 C    3.959 --    13 C    1.009     8 C    0.981    58 N    0.949
                            57 N    0.948
    12   6 C    3.883 --    15 C    1.665    10 N    1.219    14 C    0.927
    13   6 C    3.954 --    17 C    1.544    16 N    1.263    11 C    1.009
    14   6 C    3.897 --    19 C    1.000    12 C    0.927    59 N    0.925
                            18 N    0.896
    15   8 C    1.963 --    12 C    1.665    10 N    0.166
    16   7 N    3.018 --    20 C    1.485    13 C    1.263
    17   6 C    3.876 --    13 C    1.544    21 N    1.171    60 N    0.933
                            20 C    0.117
    18   7 N    3.376 --    23 C    1.211    22 C    0.975    14 C    0.896
                            26 C    0.156
    19   6 C    3.963 --    14 C    1.000    24 C    0.989    61 N    0.961
                            62 N    0.959
    20   6 C    3.925 --    16 N    1.485    21 N    1.316    63 N    0.941
                            17 C    0.117
    21   7 N    3.540 --    20 C    1.316    17 C    1.171    64 N    0.887
    22   6 C    3.932 --    24 C    0.996    18 N    0.975    65 N    0.945
                            66 N    0.941
    23   6 C    3.875 --    26 C    1.642    18 N    1.211    25 C    0.932
    24   6 C    3.964 --    22 C    0.996    19 C    0.989    67 N    0.967
                            68 N    0.964
    25   6 C    3.923 --    28 C    0.991    27 N    0.957    23 C    0.932
                            69 N    0.919
    26   8 C    1.932 --    23 C    1.642    18 N    0.156
    27   7 N    3.293 --    29 C    1.180    25 C    0.957    70 N    0.889
                            32 C    0.158
    28   6 C    3.961 --    30 C    0.991    25 C    0.991    72 N    0.953
                            71 N    0.951
    29   6 C    3.876 --    32 C    1.680    27 N    1.180    31 C    0.942
    30   6 C    3.932 --    28 C    0.991    33 O    0.981    74 N    0.958
                            73 N    0.948
    31   6 C    3.924 --    35 C    1.021    29 C    0.942    75 N    0.933
                            34 N    0.906
    32   8 C    1.962 --    29 C    1.680    27 N    0.158
    33  16 O    2.070 --    36 C    0.987    30 C    0.981
    34   7 N    3.350 --    37 C    1.286    31 C    0.906    76 N    0.880
                            39 C    0.178
    35   6 C    3.954 --    31 C    1.021    38 C    0.979    77 N    0.948
                            78 N    0.941
    36   6 C    3.918 --    33 O    0.987    81 N    0.974    79 N    0.967
                            80 N    0.963
    37   6 C    3.891 --    39 C    1.593    34 N    1.286     6 C    0.948
    38   6 C    3.958 --    35 C    0.979    40 C    0.961    83 N    0.958
                            82 N    0.943
    39   8 C    1.885 --    37 C    1.593    34 N    0.178
    40   6 C    3.879 --    41 C    1.657    42 N    1.234    38 C    0.961
    41   8 C    1.927 --    40 C    1.657    42 N    0.161
    42   7 N    3.255 --    40 C    1.234    84 N    0.914    85 N    0.911
                            41 C    0.161
    43   6 C    3.963 --    44 C    1.019     2 C    0.982    87 N    0.951
                            86 N    0.946
    44   6 C    3.927 --    43 C    1.019    45 O    0.968    89 N    0.953
                            88 N    0.948
    45  16 O    2.085 --    46 C    1.019    44 C    0.968
    46   6 C    3.934 --    45 O    1.019    90 N    0.969    92 N    0.966
                            91 N    0.965
    47   6 C    3.952 --     6 C    0.987    93 N    0.955    94 N    0.941
                            48 C    0.938
    48   6 C    3.870 --    49 C    1.683    50 N    1.210    47 C    0.938
    49   8 C    1.956 --    48 C    1.683    50 N    0.156
    50   7 N    3.227 --    48 C    1.210    96 N    0.918    95 N    0.904
                            49 C    0.156
    51   1 N    0.920 --     1 N    0.839
    52   1 N    0.981 --     2 C    0.923
    53   1 N    0.940 --     5 N    0.898
    54   1 N    0.972 --     6 C    0.917
    55   1 N    0.981 --     8 C    0.932
    56   1 N    0.923 --    10 N    0.863
    57   1 N    0.987 --    11 C    0.948
    58   1 N    0.983 --    11 C    0.949
    59   1 N    0.972 --    14 C    0.925
    60   1 N    0.968 --    17 C    0.933
    61   1 N    0.987 --    19 C    0.961
    62   1 N    0.990 --    19 C    0.959
    63   1 N    0.985 --    20 C    0.941
    64   1 N    0.923 --    21 N    0.887
    65   1 N    0.990 --    22 C    0.945
    66   1 N    0.990 --    22 C    0.941
    67   1 N    0.991 --    24 C    0.967
    68   1 N    0.990 --    24 C    0.964
    69   1 N    0.977 --    25 C    0.919
    70   1 N    0.932 --    27 N    0.889
    71   1 N    0.988 --    28 C    0.951
    72   1 N    0.990 --    28 C    0.953
    73   1 N    0.987 --    30 C    0.948
    74   1 N    0.988 --    30 C    0.958
    75   1 N    0.982 --    31 C    0.933
    76   1 N    0.914 --    34 N    0.880
    77   1 N    0.989 --    35 C    0.948
    78   1 N    0.979 --    35 C    0.941
    79   1 N    0.986 --    36 C    0.967
    80   1 N    0.989 --    36 C    0.963
    81   1 N    0.991 --    36 C    0.974
    82   1 N    0.979 --    38 C    0.943
    83   1 N    0.991 --    38 C    0.958
    84   1 N    0.938 --    42 N    0.914
    85   1 N    0.941 --    42 N    0.911
    86   1 N    0.988 --    43 C    0.946
    87   1 N    0.992 --    43 C    0.951
    88   1 N    0.980 --    44 C    0.948
    89   1 N    0.985 --    44 C    0.953
    90   1 N    0.988 --    46 C    0.969
    91   1 N    0.994 --    46 C    0.965
    92   1 N    0.992 --    46 C    0.966
    93   1 N    0.991 --    47 C    0.955
    94   1 N    0.979 --    47 C    0.941
    95   1 N    0.929 --    50 N    0.904
    96   1 N    0.941 --    50 N    0.918
 ---------------------------------------------------------------------------

Topologies differ in total number of bonds
Writing topology from bond orders to xtbtopo.mol

Atomic dipole moments (in atomic units):
---------------------------------------------------------
     #    Z                 x            y            z
---------------------------------------------------------
           total     1.870109    -4.229569    -4.269872
---------------------------------------------------------
         |total|     6.294313    15.998547 Debye


           -------------------------------------------------
          | TOTAL ENERGY            -3116.661299753353 Eh   |
          | GRADIENT NORM               0.372503285046 Eh/α |
           -------------------------------------------------

------------------------------------------------------------------------
 * finished run on 2026/05/23 at 08:18:26.444     
------------------------------------------------------------------------
 total:
 * wall-time:     0 d,  0 h,  0 min, 16.606 sec
 *  cpu-time:     0 d,  0 h,  0 min, 26.483 sec
 * ratio c/w:     1.595 speedup
 SCF:
 * wall-time:     0 d,  0 h,  0 min, 16.081 sec
 *  cpu-time:     0 d,  0 h,  0 min, 25.987 sec
 * ratio c/w:     1.616 speedup

normal termination of xtb
