      -----------------------------------------------------------      
     |                   =====================                   |     
     |                           x T B                           |     
     |                   =====================                   |     
     |                         S. Grimme                         |     
     |          Mulliken Center for Theoretical Chemistry        |     
     |                    University of Bonn                     |     
      -----------------------------------------------------------      

   * xtb version 6.7.1 (edcfbbe) compiled by 'albert@albert-system' on 2024-07-22

   xtb is free software: you can redistribute it and/or modify it under
   the terms of the GNU Lesser General Public License as published by
   the Free Software Foundation, either version 3 of the License, or
   (at your option) any later version.
   
   xtb is distributed in the hope that it will be useful,
   but WITHOUT ANY WARRANTY; without even the implied warranty of
   MERCHANTABILITY or FITNESS FOR A PARTICULAR PURPOSE.  See the
   GNU Lesser General Public License for more details.
   
   Cite this work as:
   * C. Bannwarth, E. Caldeweyher, S. Ehlert, A. Hansen, P. Pracht,
     J. Seibert, S. Spicher, S. Grimme, WIREs Comput. Mol. Sci., 2020, 11,
     e01493. DOI: 10.1002/wcms.1493
   
   for GFN2-xTB:
   * C. Bannwarth, S. Ehlert and S. Grimme., J. Chem. Theory Comput., 2019,
     15, 1652-1671. DOI: 10.1021/acs.jctc.8b01176
   for GFN1-xTB:
   * S. Grimme, C. Bannwarth, P. Shushkov, J. Chem. Theory Comput., 2017,
     13, 1989-2009. DOI: 10.1021/acs.jctc.7b00118
   for GFN0-xTB:
   * P. Pracht, E. Caldeweyher, S. Ehlert, S. Grimme, ChemRxiv, 2019, preprint.
     DOI: 10.26434/chemrxiv.8326202.v1
   for GFN-FF:
   * S. Spicher and S. Grimme, Angew. Chem. Int. Ed., 2020, 59, 15665-15673.
     DOI: 10.1002/anie.202004239
   
   for ALPB and GBSA implicit solvation:
   * S. Ehlert, M. Stahn, S. Spicher, S. Grimme, J. Chem. Theory Comput.,
     2021, 17, 4250-4261. DOI: 10.1021/acs.jctc.1c00471
   
   for ddCOSMO and CPCM-X implicit solvation:
   * M. Stahn, S. Ehlert, S. Grimme, J. Phys. Chem. A,
     2023, XX, XXXX-XXXX. DOI: 10.1021/acs.jpca.3c04382
   
   for DFT-D4:
   * E. Caldeweyher, C. Bannwarth and S. Grimme, J. Chem. Phys., 2017,
     147, 034112. DOI: 10.1063/1.4993215
   * E. Caldeweyher, S. Ehlert, A. Hansen, H. Neugebauer, S. Spicher,
     C. Bannwarth and S. Grimme, J. Chem. Phys., 2019, 150, 154122.
     DOI: 10.1063/1.5090222
   * E. Caldeweyher, J.-M. Mewes, S. Ehlert and S. Grimme, Phys. Chem. Chem. Phys.
     2020, 22, 8499-8512. DOI: 10.1039/D0CP00502A
   
   for sTDA-xTB:
   * S. Grimme and C. Bannwarth, J. Chem. Phys., 2016, 145, 054103.
     DOI: 10.1063/1.4959605
   
   in the mass-spec context:
   * V. Asgeirsson, C. Bauer and S. Grimme, Chem. Sci., 2017, 8, 4879.
     DOI: 10.1039/c7sc00601b
   * J. Koopman and S. Grimme, ACS Omega 2019, 4, 12, 15120-15133.
     DOI: 10.1021/acsomega.9b02011
   
   for metadynamics refer to:
   * S. Grimme, J. Chem. Theory Comput., 2019, 155, 2847-2862
     DOI: 10.1021/acs.jctc.9b00143
   
   for SPH calculations refer to:
   * S. Spicher and S. Grimme, J. Chem. Theory Comput., 2021, 17, 1701-1714
     DOI: 10.1021/acs.jctc.0c01306
   
   for ONIOM refer to:
   * C. Plett, A. Katbashev, S. Ehlert, S. Grimme, M. Bursch,
     Phys. Chem. Chem. Phys., 2023, 25, 17860-17868. DOI: 10.1039/D3CP02178E
   
   for DIPRO refer to:
   * J. Kohn, N. Gildemeister, S. Grimme, D. Fazzi, A. Hansen,
     J. Chem. Phys., 2023, just accepted.
   
   for PTB refer to:
   * S. Grimme, M. Mueller, A. Hansen, J. Chem. Phys., 2023, 158, 124111.
     DOI: 10.1063/5.0137838
   
   with help from (in alphabetical order)
   P. Atkinson, C. Bannwarth, F. Bohle, G. Brandenburg, E. Caldeweyher
   M. Checinski, S. Dohm, S. Ehlert, S. Ehrlich, I. Gerasimov, C. Hölzer
   A. Katbashev, J. Kohn, J. Koopman, C. Lavigne, S. Lehtola, F. März, M. Müller,
   F. Musil, H. Neugebauer, J. Pisarek, C. Plett, P. Pracht, F. Pultar,
   J. Seibert, P. Shushkov, S. Spicher, M. Stahn, M. Steiner, T. Strunk,
   J. Stückrath, T. Rose, and J. Unsleber
   
 * started run on 2026/05/23 at 12:35:59.786     
   ID    Z sym.   atoms
    1    7 N      1, 5, 10, 17, 27, 34, 39, 43, 54, 56, 57
    2    6 C      2, 3, 6-8, 11-14, 16, 18, 21-23, 28-31, 33, 35-38, 40,
                  44-48, 50-53, 55, 58
    3    8 O      4, 9, 15, 19, 20, 24-26, 32, 41, 49
    4   16 S      42
    5    1 H      59-117

           -------------------------------------------------
          |                Calculation Setup                |
           -------------------------------------------------

          program call               : /home/xchen/software/xtb-6.7.1/xtb-dist/bin/xtb /home/xchen/Test/benchmark/md_sampled/04_7_0231_n2/snap_0046.xyz --charge -2 --gfn 2 --norestart
          coordinate file            : /home/xchen/Test/benchmark/md_sampled/04_7_0231_n2/snap_0046.xyz
          omp threads                :                    48


           -------------------------------------------------
          |                 G F N 2 - x T B                 |
           -------------------------------------------------

        Reference                      10.1021/acs.jctc.8b01176
      * Hamiltonian:
        H0-scaling (s, p, d)           1.850000    2.230000    2.230000
        zeta-weighting                 0.500000
      * Dispersion:
        s8                             2.700000
        a1                             0.520000
        a2                             5.000000
        s9                             5.000000
      * Repulsion:
        kExp                           1.500000    1.000000
        rExp                           1.000000
      * Coulomb:
        alpha                          2.000000
        third order                    shell-resolved
        anisotropic                    true
        a3                             3.000000
        a5                             4.000000
        cn-shift                       1.200000
        cn-exp                         4.000000
        max-rad                        5.000000


          ...................................................
          :                      SETUP                      :
          :.................................................:
          :  # basis functions                 297          :
          :  # atomic orbitals                 296          :
          :  # shells                          176          :
          :  # electrons                       328          :
          :  max. iterations                   250          :
          :  Hamiltonian                  GFN2-xTB          :
          :  restarted?                      false          :
          :  GBSA solvation                  false          :
          :  PC potential                    false          :
          :  electronic temp.          300.0000000     K    :
          :  accuracy                    1.0000000          :
          :  -> integral cutoff          0.2500000E+02      :
          :  -> integral neglect         0.1000000E-07      :
          :  -> SCF convergence          0.1000000E-05 Eh   :
          :  -> wf. convergence          0.1000000E-03 e    :
          :  Broyden damping             0.4000000          :
          :  net charge                         -2          :
          :  unpaired electrons                  0          :
          ...................................................

 iter      E             dE          RMSdq      gap      omega  full diag
   1   -186.9768648 -0.186977E+03  0.419E+00    3.68       0.0  T
   2   -187.5002169 -0.523352E+00  0.220E+00    2.16       1.0  T
   3   -187.5275290 -0.273121E-01  0.120E+00    1.17       1.0  T
   4   -186.4476095  0.107992E+01  0.209E+00    0.18       1.0  T
   5   -187.5345790 -0.108697E+01  0.246E-01    0.88       1.0  T
   6   -187.5370239 -0.244496E-02  0.142E-01    0.85       1.0  T
   7   -187.5370834 -0.594815E-04  0.996E-02    0.91       1.0  T
   8   -187.5372609 -0.177496E-03  0.845E-02    0.90       1.0  T
   9   -187.5373437 -0.828123E-04  0.784E-02    0.85       1.0  T
  10   -187.5374057 -0.619895E-04  0.731E-02    0.80       1.0  T
  11   -187.5374735 -0.678355E-04  0.677E-02    0.75       1.0  T
  12   -187.5375470 -0.734397E-04  0.612E-02    0.69       1.0  T
  13   -187.5376296 -0.826666E-04  0.530E-02    0.62       1.0  T
  14   -187.5378507 -0.221109E-03  0.233E-02    0.36       1.0  T
  15   -187.5375574  0.293327E-03  0.402E-02    0.19       1.0  T
  16   -187.5379025 -0.345078E-03  0.140E-02    0.31       1.0  T
  17   -187.5379352 -0.326590E-04  0.491E-03    0.27       1.9  T
  18   -187.5379397 -0.450412E-05  0.135E-03    0.25       6.9  T
  19   -187.5379400 -0.375648E-06  0.252E-04    0.26      36.7  T
  20   -187.5379400 -0.103847E-07  0.116E-04    0.26      79.9  T

   *** convergence criteria satisfied after 20 iterations ***

         #    Occupation            Energy/Eh            Energy/eV
      -------------------------------------------------------------
         1        2.0000           -0.5918973             -16.1063
       ...           ...                  ...                  ...
       158        2.0000           -0.2171614              -5.9093
       159        2.0000           -0.2010421              -5.4706
       160        2.0000           -0.1873188              -5.0972
       161        2.0000           -0.1653037              -4.4981
       162        2.0000           -0.1651947              -4.4952
       163        2.0000           -0.1501333              -4.0853
       164        1.9862           -0.1294172              -3.5216 (HOMO)
       165        0.0138           -0.1199700              -3.2646 (LUMO)
       166        0.0000           -0.1089985              -2.9660
       167                         -0.0969452              -2.6380
       168                         -0.0899376              -2.4473
       169                         -0.0833716              -2.2687
       ...                                ...                  ...
       296                          0.9444720              25.7004
      -------------------------------------------------------------
                  HL-Gap            0.0094471 Eh            0.2571 eV
             Fermi-level           -0.1246936 Eh           -3.3931 eV

 SCC (total)                   0 d,  0 h,  0 min, 27.084 sec
 SCC setup                      ...        0 min,  0.051 sec (  0.189%)
 Dispersion                     ...        0 min,  0.256 sec (  0.946%)
 classical contributions        ...        0 min,  0.013 sec (  0.050%)
 integral evaluation            ...        0 min,  0.391 sec (  1.442%)
 iterations                     ...        0 min, 25.462 sec ( 94.009%)
 molecular gradient             ...        0 min,  0.893 sec (  3.298%)
 printout                       ...        0 min,  0.018 sec (  0.065%)

         :::::::::::::::::::::::::::::::::::::::::::::::::::::
         ::                     SUMMARY                     ::
         :::::::::::::::::::::::::::::::::::::::::::::::::::::
         :: total energy            -185.539059816520 Eh    ::
         :: gradient norm              0.368277903989 Eh/a0 ::
         :: HOMO-LUMO gap              0.257069985065 eV    ::
         ::.................................................::
         :: SCC energy              -187.531638457583 Eh    ::
         :: -> isotropic ES            0.727175770828 Eh    ::
         :: -> anisotropic ES          0.012889441486 Eh    ::
         :: -> anisotropic XC          0.065596826235 Eh    ::
         :: -> dispersion             -0.139455653585 Eh    ::
         :: repulsion energy           1.992578641063 Eh    ::
         :: add. restraining           0.000000000000 Eh    ::
         :: total charge              -1.999999999998 e     ::
         :::::::::::::::::::::::::::::::::::::::::::::::::::::

           -------------------------------------------------
          |                Property Printout                |
           -------------------------------------------------

    * Orbital Energies and Occupations

         #    Occupation            Energy/Eh            Energy/eV
      -------------------------------------------------------------
         1        2.0000           -0.5918973             -16.1063
       ...           ...                  ...                  ...
       152        2.0000           -0.2487310              -6.7683
       153        2.0000           -0.2467947              -6.7156
       154        2.0000           -0.2339248              -6.3654
       155        2.0000           -0.2321187              -6.3163
       156        2.0000           -0.2258550              -6.1458
       157        2.0000           -0.2241101              -6.0983
       158        2.0000           -0.2171614              -5.9093
       159        2.0000           -0.2010421              -5.4706
       160        2.0000           -0.1873188              -5.0972
       161        2.0000           -0.1653037              -4.4981
       162        2.0000           -0.1651947              -4.4952
       163        2.0000           -0.1501333              -4.0853
       164        1.9862           -0.1294172              -3.5216 (HOMO)
       165        0.0138           -0.1199700              -3.2646 (LUMO)
       166        0.0000           -0.1089985              -2.9660
       167                         -0.0969452              -2.6380
       168                         -0.0899376              -2.4473
       169                         -0.0833716              -2.2687
       170                         -0.0770071              -2.0955
       171                         -0.0634575              -1.7268
       172                         -0.0606936              -1.6516
       173                         -0.0552553              -1.5036
       174                         -0.0546676              -1.4876
       175                          0.0325676               0.8862
       ...                                ...                  ...
       296                          0.9444720              25.7004
      -------------------------------------------------------------
                  HL-Gap            0.0094471 Eh            0.2571 eV
             Fermi-level           -0.1246936 Eh           -3.3931 eV

     #   Z          covCN         q      C6AA      α(0)
     1   7 N        2.681    -0.194    25.215     7.458
     2   6 C        3.786     0.031    20.070     6.381
     3   6 C        2.748     0.287    22.131     7.703
     4   8 O        0.857    -0.422    22.122     6.306
     5   7 N        2.687    -0.201    25.361     7.479
     6   6 C        3.763     0.025    20.197     6.406
     7   6 C        2.749     0.277    22.311     7.734
     8   6 C        3.781     0.028    20.119     6.390
     9   8 O        0.856    -0.445    22.598     6.373
    10   7 N        2.680    -0.193    25.198     7.455
    11   6 C        3.797    -0.061    21.678     6.630
    12   6 C        2.729     0.253    22.748     7.808
    13   6 C        3.781    -0.109    22.610     6.774
    14   6 C        3.767     0.033    20.054     6.382
    15   8 O        0.858    -0.465    23.026     6.434
    16   6 C        2.676     0.374    20.671     7.440
    17   7 N        2.682    -0.209    25.558     7.508
    18   6 C        3.783    -0.115    22.711     6.788
    19   8 O        0.857    -0.578    25.581     6.781
    20   8 O        0.856    -0.600    26.130     6.853
    21   6 C        2.759     0.252    22.758     7.812
    22   6 C        2.669     0.382    20.533     7.415
    23   6 C        3.785     0.018    20.286     6.415
    24   8 O        0.857    -0.477    23.271     6.468
    25   8 O        0.856    -0.537    24.612     6.651
    26   8 O        0.857    -0.575    25.522     6.773
    27   7 N        2.722    -0.160    24.453     7.344
    28   6 C        3.786    -0.072    21.900     6.666
    29   6 C        2.784     0.268    22.477     7.766
    30   6 C        3.782    -0.059    21.657     6.629
    31   6 C        3.819     0.031    20.039     6.371
    32   8 O        0.858    -0.456    22.833     6.407
    33   6 C        3.804    -0.066    21.763     6.641
    34   7 N        2.689    -0.186    25.030     7.430
    35   6 C        3.815    -0.065    21.728     6.634
    36   6 C        3.740     0.031    20.125     6.401
    37   6 C        2.757     0.272    22.405     7.751
    38   6 C        3.766    -0.002    20.648     6.476
    39   7 N        2.622    -0.343    28.826     7.974
    40   6 C        3.806     0.025    20.150     6.390
    41   8 O        0.859    -0.433    22.348     6.338
    42  16 S        1.943    -0.248   151.689    20.729
    43   7 N        2.689    -0.167    24.623     7.370
    44   6 C        3.797    -0.011    20.774     6.490
    45   6 C        3.726    -0.057    21.697     6.651
    46   6 C        2.760     0.245    22.888     7.835
    47   6 C        3.736    -0.105    22.588     6.783
    48   6 C        3.799    -0.062    21.693     6.632
    49   8 O        0.860    -0.448    22.660     6.382
    50   6 C        3.731    -0.097    22.447     6.763
    51   6 C        3.809    -0.061    21.672     6.627
    52   6 C        3.827    -0.072    21.855     6.652
    53   6 C        3.742     0.018    20.344     6.435
    54   7 N        2.724    -0.208    25.534     7.505
    55   6 C        2.736     0.246    22.872     7.830
    56   7 N        1.820    -0.461    33.164     8.533
    57   7 N        2.664    -0.323    28.296     7.900
    58   6 C        3.738    -0.107    22.631     6.788
    59   1 H        0.860     0.187     1.176     1.699
    60   1 H        0.921     0.062     2.180     2.309
    61   1 H        0.861     0.203     1.089     1.635
    62   1 H        0.917     0.063     2.166     2.302
    63   1 H        0.928     0.063     2.162     2.299
    64   1 H        0.862     0.198     1.118     1.656
    65   1 H        0.928     0.060     2.196     2.317
    66   1 H        0.923     0.032     2.552     2.498
    67   1 H        0.929     0.021     2.714     2.576
    68   1 H        0.918    -0.000     3.068     2.739
    69   1 H        0.926     0.056     2.244     2.342
    70   1 H        0.855     0.237     0.934     1.514
    71   1 H        0.925     0.027     2.634     2.538
    72   1 H        0.923     0.014     2.824     2.628
    73   1 H        0.919     0.070     2.084     2.258
    74   1 H        0.861     0.208     1.068     1.619
    75   1 H        0.924     0.042     2.423     2.434
    76   1 H        0.927     0.077     2.014     2.219
    77   1 H        0.919     0.045     2.386     2.416
    78   1 H        0.912     0.020     2.730     2.584
    79   1 H        0.924     0.066     2.125     2.280
    80   1 H        0.924     0.060     2.201     2.320
    81   1 H        0.926     0.027     2.634     2.538
    82   1 H        0.861     0.172     1.263     1.760
    83   1 H        0.929     0.069     2.101     2.267
    84   1 H        0.925     0.075     2.035     2.231
    85   1 H        0.928     0.024     2.673     2.557
    86   1 H        0.925     0.012     2.861     2.645
    87   1 H        0.912     0.038     2.474     2.460
    88   1 H        0.911     0.038     2.472     2.459
    89   1 H        0.861     0.160     1.337     1.811
    90   1 H        0.849     0.110     1.711     2.050
    91   1 H        0.926     0.087     1.909     2.161
    92   1 H        0.859     0.165     1.302     1.787
    93   1 H        0.874     0.045     2.397     2.424
    94   1 H        0.939     0.084     1.937     2.176
    95   1 H        0.910     0.052     2.302     2.373
    96   1 H        0.926     0.051     2.303     2.373
    97   1 H        0.924     0.040     2.451     2.448
    98   1 H        0.910     0.019     2.753     2.596
    99   1 H        0.926     0.041     2.432     2.439
   100   1 H        0.926     0.047     2.361     2.403
   101   1 H        0.922     0.037     2.485     2.465
   102   1 H        0.907     0.009     2.903     2.666
   103   1 H        0.917     0.029     2.600     2.522
   104   1 H        0.928     0.050     2.313     2.378
   105   1 H        0.922     0.057     2.236     2.338
   106   1 H        0.923     0.039     2.461     2.453
   107   1 H        0.924     0.055     2.261     2.352
   108   1 H        0.927     0.058     2.219     2.329
   109   1 H        0.916     0.034     2.534     2.490
   110   1 H        0.928     0.043     2.408     2.427
   111   1 H        0.859     0.170     1.273     1.767
   112   1 H        0.860     0.109     1.714     2.051
   113   1 H        0.859     0.161     1.328     1.805
   114   1 H        0.858     0.177     1.233     1.740
   115   1 H        0.928     0.091     1.868     2.137
   116   1 H        0.923     0.022     2.703     2.571
   117   1 H        0.917     0.044     2.402     2.424

 Mol. C6AA /au·bohr⁶  :     136500.558271
 Mol. C8AA /au·bohr⁸  :    3093346.808785
 Mol. α(0) /au        :        551.798733


Wiberg/Mayer (AO) data.
largest (>0.10) Wiberg bond orders for each atom

 ---------------------------------------------------------------------------
     #   Z sym  total        # sym  WBO       # sym  WBO       # sym  WBO
 ---------------------------------------------------------------------------
     1   7 N    3.387 --     7 C    1.243     2 C    0.958    59 H    0.930
                             9 O    0.178
     2   6 C    3.968 --    51 C    0.988     1 N    0.958    60 H    0.957
                             3 C    0.940
     3   6 C    3.945 --     4 O    1.717     5 N    1.197     2 C    0.940
     4   8 O    2.015 --     3 C    1.717     5 N    0.172
     5   7 N    3.356 --     3 C    1.197     6 C    0.987    61 H    0.923
                             4 O    0.172
     6   6 C    3.971 --     5 N    0.987    58 C    0.984    62 H    0.950
                            46 C    0.939
     7   6 C    3.932 --     9 O    1.672     1 N    1.243     8 C    0.930
     8   6 C    3.958 --    11 C    0.985    63 H    0.966    10 N    0.948
                             7 C    0.930
     9   8 O    2.011 --     7 C    1.672     1 N    0.178
    10   7 N    3.418 --    12 C    1.258     8 C    0.948    64 H    0.921
                            15 O    0.182
    11   6 C    3.982 --    13 C    0.985     8 C    0.985    66 H    0.977
                            65 H    0.962
    12   6 C    3.928 --    15 O    1.680    10 N    1.258    14 C    0.898
    13   6 C    3.942 --    11 C    0.985    67 H    0.980    68 H    0.979
                            16 C    0.846
    14   6 C    3.954 --    17 N    0.992    18 C    0.979    69 H    0.956
                            12 C    0.898
    15   8 O    1.974 --    12 C    1.680    10 N    0.182
    16   6 C    3.944 --    19 O    1.557    20 O    1.520    13 C    0.846
    17   7 N    3.436 --    21 C    1.289    14 C    0.992    70 H    0.838
                            24 O    0.194
    18   6 C    3.935 --    14 C    0.979    72 H    0.976    71 H    0.970
                            22 C    0.831
    19   8 O    1.865 --    16 C    1.557    20 O    0.231
    20   8 O    1.833 --    16 C    1.520    19 O    0.231
    21   6 C    3.951 --    24 O    1.625    17 N    1.289    23 C    0.946
    22   6 C    3.943 --    25 O    1.604    26 O    1.484    18 C    0.831
    23   6 C    3.955 --    27 N    0.997    73 H    0.952    21 C    0.946
                            28 C    0.935
    24   8 O    1.979 --    21 C    1.625    17 N    0.194
    25   8 O    1.927 --    22 C    1.604    26 O    0.224
    26   8 O    1.911 --    22 C    1.484    25 O    0.224
    27   7 N    3.504 --    29 C    1.316    23 C    0.997    74 H    0.902
                            32 O    0.208
    28   6 C    3.985 --    30 C    1.005    75 H    0.976    76 H    0.970
                            23 C    0.935
    29   6 C    3.960 --    32 O    1.634    27 N    1.316    31 C    0.939
    30   6 C    3.989 --    33 C    1.010    28 C    1.005    78 H    0.974
                            77 H    0.966
    31   6 C    3.959 --    35 C    0.995    34 N    0.956    79 H    0.947
                            29 C    0.939
    32   8 O    1.973 --    29 C    1.634    27 N    0.208
    33   6 C    3.992 --    30 C    1.010    36 C    0.996    81 H    0.976
                            80 H    0.960
    34   7 N    3.430 --    37 C    1.254    31 C    0.956    82 H    0.939
                            41 O    0.195
    35   6 C    3.992 --    38 C    1.002    31 C    0.995    84 H    0.965
                            83 H    0.958
    36   6 C    3.990 --    39 N    1.021    33 C    0.996    86 H    0.978
                            85 H    0.978
    37   6 C    3.946 --    41 O    1.694    34 N    1.254    40 C    0.911
    38   6 C    3.971 --    35 C    1.002    42 S    0.988    87 H    0.969
                            88 H    0.957
    39   7 N    2.992 --    36 C    1.021    90 H    0.971    89 H    0.960
    40   6 C    3.963 --    43 N    0.999    44 C    0.979    91 H    0.943
                            37 C    0.911
    41   8 O    2.007 --    37 C    1.694    34 N    0.195
    42  16 S    2.100 --    45 C    0.998    38 C    0.988
    43   7 N    3.450 --    46 C    1.261    40 C    0.999    92 H    0.930
                            49 O    0.188
    44   6 C    3.986 --    47 C    1.000    48 C    0.991    40 C    0.979
                            93 H    0.958
    45   6 C    3.965 --    42 S    0.998    96 H    0.984    95 H    0.972
                            94 H    0.965
    46   6 C    3.933 --    49 O    1.654    43 N    1.261     6 C    0.939
    47   6 C    3.987 --    44 C    1.000    97 H    0.985    99 H    0.985
                            98 H    0.983
    48   6 C    3.994 --    50 C    1.020    44 C    0.991   100 H    0.977
                           101 H    0.970
    49   8 O    1.976 --    46 C    1.654    43 N    0.188
    50   6 C    3.992 --    48 C    1.020   103 H    0.986   102 H    0.985
                           104 H    0.980
    51   6 C    3.988 --    52 C    0.999     2 C    0.988   105 H    0.970
                           106 H    0.970
    52   6 C    3.992 --    53 C    1.018    51 C    0.999   108 H    0.972
                           107 H    0.968
    53   6 C    3.975 --    52 C    1.018    54 N    0.984   110 H    0.968
                           109 H    0.960
    54   7 N    3.354 --    55 C    1.197    53 C    0.984   111 H    0.927
                            56 N    0.155
    55   6 C    3.968 --    56 N    1.656    54 N    1.197    57 N    1.090
    56   7 N    2.917 --    55 C    1.656   112 H    0.957    54 N    0.155
    57   7 N    3.146 --    55 C    1.090   113 H    0.948   114 H    0.947
    58   6 C    3.985 --     6 C    0.984   116 H    0.984   117 H    0.981
                           115 H    0.976
    59   1 H    0.964 --     1 N    0.930
    60   1 H    0.996 --     2 C    0.957
    61   1 H    0.959 --     5 N    0.923
    62   1 H    0.995 --     6 C    0.950
    63   1 H    0.996 --     8 C    0.966
    64   1 H    0.961 --    10 N    0.921
    65   1 H    0.996 --    11 C    0.962
    66   1 H    0.998 --    11 C    0.977
    67   1 H    0.999 --    13 C    0.980
    68   1 H    1.000 --    13 C    0.979
    69   1 H    0.997 --    14 C    0.956
    70   1 H    0.944 --    17 N    0.838
    71   1 H    0.999 --    18 C    0.970
    72   1 H    0.999 --    18 C    0.976
    73   1 H    0.995 --    23 C    0.952
    74   1 H    0.957 --    27 N    0.902
    75   1 H    0.998 --    28 C    0.976
    76   1 H    0.994 --    28 C    0.970
    77   1 H    0.998 --    30 C    0.966
    78   1 H    0.999 --    30 C    0.974
    79   1 H    0.995 --    31 C    0.947
    80   1 H    0.996 --    33 C    0.960
    81   1 H    0.999 --    33 C    0.976
    82   1 H    0.970 --    34 N    0.939
    83   1 H    0.995 --    35 C    0.958
    84   1 H    0.994 --    35 C    0.965
    85   1 H    0.999 --    36 C    0.978
    86   1 H    1.000 --    36 C    0.978
    87   1 H    0.999 --    38 C    0.969
    88   1 H    0.998 --    38 C    0.957
    89   1 H    0.975 --    39 N    0.960
    90   1 H    0.988 --    39 N    0.971
    91   1 H    0.992 --    40 C    0.943
    92   1 H    0.973 --    43 N    0.930
    93   1 H    0.997 --    44 C    0.958
    94   1 H    0.993 --    45 C    0.965
    95   1 H    0.997 --    45 C    0.972
    96   1 H    0.997 --    45 C    0.984
    97   1 H    0.998 --    47 C    0.985
    98   1 H    0.999 --    47 C    0.983
    99   1 H    0.998 --    47 C    0.985
   100   1 H    0.998 --    48 C    0.977
   101   1 H    0.999 --    48 C    0.970
   102   1 H    1.000 --    50 C    0.985
   103   1 H    0.999 --    50 C    0.986
   104   1 H    0.997 --    50 C    0.980
   105   1 H    0.997 --    51 C    0.970
   106   1 H    0.998 --    51 C    0.970
   107   1 H    0.997 --    52 C    0.968
   108   1 H    0.996 --    52 C    0.972
   109   1 H    0.999 --    53 C    0.960
   110   1 H    0.998 --    53 C    0.968
   111   1 H    0.971 --    54 N    0.927
   112   1 H    0.988 --    56 N    0.957
   113   1 H    0.974 --    57 N    0.948
   114   1 H    0.968 --    57 N    0.947
   115   1 H    0.991 --    58 C    0.976
   116   1 H    0.999 --    58 C    0.984
   117   1 H    0.998 --    58 C    0.981
 ---------------------------------------------------------------------------

Topologies differ in total number of bonds
Writing topology from bond orders to xtbtopo.mol

molecular dipole:
                 x           y           z       tot (Debye)
 q only:        2.904      14.555       0.316
   full:        3.181      14.196      -0.428      36.993
molecular quadrupole (traceless):
                xx          xy          yy          xz          yz          zz
 q only:       12.518      -1.406     -47.939      74.557     -86.632      35.421
  q+dip:        3.146       4.525     -34.292      71.921     -88.693      31.145
   full:        2.506       5.790     -33.340      71.863     -89.664      30.833


           -------------------------------------------------
          | TOTAL ENERGY             -185.539059816520 Eh   |
          | GRADIENT NORM               0.368277903989 Eh/α |
          | HOMO-LUMO GAP               0.257069985065 eV   |
           -------------------------------------------------

------------------------------------------------------------------------
 * finished run on 2026/05/23 at 12:36:27.874     
------------------------------------------------------------------------
 total:
 * wall-time:     0 d,  0 h,  0 min, 28.088 sec
 *  cpu-time:     0 d,  0 h,  0 min, 41.971 sec
 * ratio c/w:     1.494 speedup
 SCF:
 * wall-time:     0 d,  0 h,  0 min, 27.086 sec
 *  cpu-time:     0 d,  0 h,  0 min, 40.903 sec
 * ratio c/w:     1.510 speedup

normal termination of xtb
