      -----------------------------------------------------------      
     |                   =====================                   |     
     |                           x T B                           |     
     |                   =====================                   |     
     |                         S. Grimme                         |     
     |          Mulliken Center for Theoretical Chemistry        |     
     |                    University of Bonn                     |     
      -----------------------------------------------------------      

   * xtb version 6.7.1 (edcfbbe) compiled by 'albert@albert-system' on 2024-07-22

   xtb is free software: you can redistribute it and/or modify it under
   the terms of the GNU Lesser General Public License as published by
   the Free Software Foundation, either version 3 of the License, or
   (at your option) any later version.
   
   xtb is distributed in the hope that it will be useful,
   but WITHOUT ANY WARRANTY; without even the implied warranty of
   MERCHANTABILITY or FITNESS FOR A PARTICULAR PURPOSE.  See the
   GNU Lesser General Public License for more details.
   
   Cite this work as:
   * C. Bannwarth, E. Caldeweyher, S. Ehlert, A. Hansen, P. Pracht,
     J. Seibert, S. Spicher, S. Grimme, WIREs Comput. Mol. Sci., 2020, 11,
     e01493. DOI: 10.1002/wcms.1493
   
   for GFN2-xTB:
   * C. Bannwarth, S. Ehlert and S. Grimme., J. Chem. Theory Comput., 2019,
     15, 1652-1671. DOI: 10.1021/acs.jctc.8b01176
   for GFN1-xTB:
   * S. Grimme, C. Bannwarth, P. Shushkov, J. Chem. Theory Comput., 2017,
     13, 1989-2009. DOI: 10.1021/acs.jctc.7b00118
   for GFN0-xTB:
   * P. Pracht, E. Caldeweyher, S. Ehlert, S. Grimme, ChemRxiv, 2019, preprint.
     DOI: 10.26434/chemrxiv.8326202.v1
   for GFN-FF:
   * S. Spicher and S. Grimme, Angew. Chem. Int. Ed., 2020, 59, 15665-15673.
     DOI: 10.1002/anie.202004239
   
   for ALPB and GBSA implicit solvation:
   * S. Ehlert, M. Stahn, S. Spicher, S. Grimme, J. Chem. Theory Comput.,
     2021, 17, 4250-4261. DOI: 10.1021/acs.jctc.1c00471
   
   for ddCOSMO and CPCM-X implicit solvation:
   * M. Stahn, S. Ehlert, S. Grimme, J. Phys. Chem. A,
     2023, XX, XXXX-XXXX. DOI: 10.1021/acs.jpca.3c04382
   
   for DFT-D4:
   * E. Caldeweyher, C. Bannwarth and S. Grimme, J. Chem. Phys., 2017,
     147, 034112. DOI: 10.1063/1.4993215
   * E. Caldeweyher, S. Ehlert, A. Hansen, H. Neugebauer, S. Spicher,
     C. Bannwarth and S. Grimme, J. Chem. Phys., 2019, 150, 154122.
     DOI: 10.1063/1.5090222
   * E. Caldeweyher, J.-M. Mewes, S. Ehlert and S. Grimme, Phys. Chem. Chem. Phys.
     2020, 22, 8499-8512. DOI: 10.1039/D0CP00502A
   
   for sTDA-xTB:
   * S. Grimme and C. Bannwarth, J. Chem. Phys., 2016, 145, 054103.
     DOI: 10.1063/1.4959605
   
   in the mass-spec context:
   * V. Asgeirsson, C. Bauer and S. Grimme, Chem. Sci., 2017, 8, 4879.
     DOI: 10.1039/c7sc00601b
   * J. Koopman and S. Grimme, ACS Omega 2019, 4, 12, 15120-15133.
     DOI: 10.1021/acsomega.9b02011
   
   for metadynamics refer to:
   * S. Grimme, J. Chem. Theory Comput., 2019, 155, 2847-2862
     DOI: 10.1021/acs.jctc.9b00143
   
   for SPH calculations refer to:
   * S. Spicher and S. Grimme, J. Chem. Theory Comput., 2021, 17, 1701-1714
     DOI: 10.1021/acs.jctc.0c01306
   
   for ONIOM refer to:
   * C. Plett, A. Katbashev, S. Ehlert, S. Grimme, M. Bursch,
     Phys. Chem. Chem. Phys., 2023, 25, 17860-17868. DOI: 10.1039/D3CP02178E
   
   for DIPRO refer to:
   * J. Kohn, N. Gildemeister, S. Grimme, D. Fazzi, A. Hansen,
     J. Chem. Phys., 2023, just accepted.
   
   for PTB refer to:
   * S. Grimme, M. Mueller, A. Hansen, J. Chem. Phys., 2023, 158, 124111.
     DOI: 10.1063/5.0137838
   
   with help from (in alphabetical order)
   P. Atkinson, C. Bannwarth, F. Bohle, G. Brandenburg, E. Caldeweyher
   M. Checinski, S. Dohm, S. Ehlert, S. Ehrlich, I. Gerasimov, C. Hölzer
   A. Katbashev, J. Kohn, J. Koopman, C. Lavigne, S. Lehtola, F. März, M. Müller,
   F. Musil, H. Neugebauer, J. Pisarek, C. Plett, P. Pracht, F. Pultar,
   J. Seibert, P. Shushkov, S. Spicher, M. Stahn, M. Steiner, T. Strunk,
   J. Stückrath, T. Rose, and J. Unsleber
   
 * started run on 2026/05/23 at 12:45:04.453     
   ID    Z sym.   atoms
    1    7 N      1, 5, 10, 17, 27, 34, 39, 43, 54, 56, 57
    2    6 C      2, 3, 6-8, 11-14, 16, 18, 21-23, 28-31, 33, 35-38, 40,
                  44-48, 50-53, 55, 58
    3    8 O      4, 9, 15, 19, 20, 24-26, 32, 41, 49
    4   16 S      42
    5    1 H      59-117

           -------------------------------------------------
          |                Calculation Setup                |
           -------------------------------------------------

          program call               : /home/xchen/software/xtb-6.7.1/xtb-dist/bin/xtb /home/xchen/Test/benchmark/md_sampled/04_7_0231_n2/snap_0080.xyz --charge -2 --gfn 2 --norestart
          coordinate file            : /home/xchen/Test/benchmark/md_sampled/04_7_0231_n2/snap_0080.xyz
          omp threads                :                    48


           -------------------------------------------------
          |                 G F N 2 - x T B                 |
           -------------------------------------------------

        Reference                      10.1021/acs.jctc.8b01176
      * Hamiltonian:
        H0-scaling (s, p, d)           1.850000    2.230000    2.230000
        zeta-weighting                 0.500000
      * Dispersion:
        s8                             2.700000
        a1                             0.520000
        a2                             5.000000
        s9                             5.000000
      * Repulsion:
        kExp                           1.500000    1.000000
        rExp                           1.000000
      * Coulomb:
        alpha                          2.000000
        third order                    shell-resolved
        anisotropic                    true
        a3                             3.000000
        a5                             4.000000
        cn-shift                       1.200000
        cn-exp                         4.000000
        max-rad                        5.000000


          ...................................................
          :                      SETUP                      :
          :.................................................:
          :  # basis functions                 297          :
          :  # atomic orbitals                 296          :
          :  # shells                          176          :
          :  # electrons                       328          :
          :  max. iterations                   250          :
          :  Hamiltonian                  GFN2-xTB          :
          :  restarted?                      false          :
          :  GBSA solvation                  false          :
          :  PC potential                    false          :
          :  electronic temp.          300.0000000     K    :
          :  accuracy                    1.0000000          :
          :  -> integral cutoff          0.2500000E+02      :
          :  -> integral neglect         0.1000000E-07      :
          :  -> SCF convergence          0.1000000E-05 Eh   :
          :  -> wf. convergence          0.1000000E-03 e    :
          :  Broyden damping             0.4000000          :
          :  net charge                         -2          :
          :  unpaired electrons                  0          :
          ...................................................

 iter      E             dE          RMSdq      gap      omega  full diag
   1   -187.0354976 -0.187035E+03  0.414E+00    3.77       0.0  T
   2   -187.5410560 -0.505558E+00  0.214E+00    2.15       1.0  T
   3   -187.5681897 -0.271336E-01  0.116E+00    1.12       1.0  T
   4   -186.2000481  0.136814E+01  0.245E+00    0.21       1.0  T
   5   -187.5756468 -0.137560E+01  0.246E-01    0.56       1.0  T
   6   -187.5778659 -0.221911E-02  0.132E-01    0.58       1.0  T
   7   -187.5779982 -0.132338E-03  0.821E-02    0.67       1.0  T
   8   -187.5780909 -0.926494E-04  0.700E-02    0.67       1.0  T
   9   -187.5781179 -0.270769E-04  0.661E-02    0.64       1.0  T
  10   -187.5781566 -0.386453E-04  0.625E-02    0.61       1.0  T
  11   -187.5781852 -0.286701E-04  0.599E-02    0.59       1.0  T
  12   -187.5782135 -0.282423E-04  0.572E-02    0.56       1.0  T
  13   -187.5782493 -0.357774E-04  0.536E-02    0.53       1.0  T
  14   -187.5783485 -0.992168E-04  0.430E-02    0.43       1.0  T
  15   -187.5784382 -0.897058E-04  0.287E-02    0.20       1.0  T
  16   -187.5786237 -0.185544E-03  0.588E-03    0.23       1.6  T
  17   -187.5779586  0.665087E-03  0.534E-02    0.18       1.0  T
  18   -187.5786309 -0.672268E-03  0.180E-03    0.23       5.1  T
  19   -187.5785762  0.547384E-04  0.156E-02    0.21       1.0  T
  20   -187.5786278 -0.516495E-04  0.412E-03    0.23       2.2  T
  21   -187.5786315 -0.372402E-05  0.575E-04    0.24      16.1  T
  22   -187.5786315  0.116281E-07  0.619E-04    0.24      14.9  T
  23   -187.5786316 -0.397233E-07  0.451E-04    0.24      20.5  T

   *** convergence criteria satisfied after 23 iterations ***

         #    Occupation            Energy/Eh            Energy/eV
      -------------------------------------------------------------
         1        2.0000           -0.5879383             -15.9986
       ...           ...                  ...                  ...
       158        2.0000           -0.2045873              -5.5671
       159        2.0000           -0.1928604              -5.2480
       160        2.0000           -0.1801737              -4.9028
       161        2.0000           -0.1684778              -4.5845
       162        2.0000           -0.1515706              -4.1244
       163        2.0000           -0.1352846              -3.6813
       164        1.9801           -0.1279268              -3.4811 (HOMO)
       165        0.0200           -0.1191907              -3.2433 (LUMO)
       166                         -0.0914684              -2.4890
       167                         -0.0885195              -2.4087
       168                         -0.0834430              -2.2706
       169                         -0.0786419              -2.1400
       ...                                ...                  ...
       296                          0.9541574              25.9639
      -------------------------------------------------------------
                  HL-Gap            0.0087362 Eh            0.2377 eV
             Fermi-level           -0.1235585 Eh           -3.3622 eV

 SCC (total)                   0 d,  0 h,  0 min, 31.321 sec
 SCC setup                      ...        0 min,  0.044 sec (  0.141%)
 Dispersion                     ...        0 min,  0.144 sec (  0.458%)
 classical contributions        ...        0 min,  0.009 sec (  0.029%)
 integral evaluation            ...        0 min,  0.282 sec (  0.901%)
 iterations                     ...        0 min, 29.637 sec ( 94.623%)
 molecular gradient             ...        0 min,  1.190 sec (  3.798%)
 printout                       ...        0 min,  0.016 sec (  0.050%)

         :::::::::::::::::::::::::::::::::::::::::::::::::::::
         ::                     SUMMARY                     ::
         :::::::::::::::::::::::::::::::::::::::::::::::::::::
         :: total energy            -185.540604718603 Eh    ::
         :: gradient norm              0.404799389935 Eh/a0 ::
         :: HOMO-LUMO gap              0.237723328472 eV    ::
         ::.................................................::
         :: SCC energy              -187.572776613121 Eh    ::
         :: -> isotropic ES            0.731263274389 Eh    ::
         :: -> anisotropic ES          0.012169513226 Eh    ::
         :: -> anisotropic XC          0.060730101297 Eh    ::
         :: -> dispersion             -0.136250167536 Eh    ::
         :: repulsion energy           2.032171894518 Eh    ::
         :: add. restraining           0.000000000000 Eh    ::
         :: total charge              -2.000000000000 e     ::
         :::::::::::::::::::::::::::::::::::::::::::::::::::::

           -------------------------------------------------
          |                Property Printout                |
           -------------------------------------------------

    * Orbital Energies and Occupations

         #    Occupation            Energy/Eh            Energy/eV
      -------------------------------------------------------------
         1        2.0000           -0.5879383             -15.9986
       ...           ...                  ...                  ...
       152        2.0000           -0.2369171              -6.4468
       153        2.0000           -0.2368058              -6.4438
       154        2.0000           -0.2323996              -6.3239
       155        2.0000           -0.2284963              -6.2177
       156        2.0000           -0.2252598              -6.1296
       157        2.0000           -0.2160931              -5.8802
       158        2.0000           -0.2045873              -5.5671
       159        2.0000           -0.1928604              -5.2480
       160        2.0000           -0.1801737              -4.9028
       161        2.0000           -0.1684778              -4.5845
       162        2.0000           -0.1515706              -4.1244
       163        2.0000           -0.1352846              -3.6813
       164        1.9801           -0.1279268              -3.4811 (HOMO)
       165        0.0200           -0.1191907              -3.2433 (LUMO)
       166                         -0.0914684              -2.4890
       167                         -0.0885195              -2.4087
       168                         -0.0834430              -2.2706
       169                         -0.0786419              -2.1400
       170                         -0.0771292              -2.0988
       171                         -0.0720656              -1.9610
       172                         -0.0661699              -1.8006
       173                         -0.0520015              -1.4150
       174                         -0.0261295              -0.7110
       175                          0.0213664               0.5814
       ...                                ...                  ...
       296                          0.9541574              25.9639
      -------------------------------------------------------------
                  HL-Gap            0.0087362 Eh            0.2377 eV
             Fermi-level           -0.1235585 Eh           -3.3622 eV

     #   Z          covCN         q      C6AA      α(0)
     1   7 N        2.675    -0.203    25.422     7.488
     2   6 C        3.772     0.021    20.258     6.414
     3   6 C        2.743     0.278    22.299     7.732
     4   8 O        0.858    -0.432    22.331     6.336
     5   7 N        2.689    -0.160    24.465     7.346
     6   6 C        3.781     0.039    19.939     6.361
     7   6 C        2.747     0.268    22.475     7.763
     8   6 C        3.783     0.024    20.192     6.401
     9   8 O        0.857    -0.418    22.041     6.294
    10   7 N        2.686    -0.182    24.935     7.416
    11   6 C        3.776    -0.048    21.466     6.601
    12   6 C        2.754     0.261    22.595     7.784
    13   6 C        3.800    -0.082    22.065     6.688
    14   6 C        3.786     0.032    20.043     6.377
    15   8 O        0.856    -0.481    23.365     6.481
    16   6 C        2.690     0.365    20.816     7.467
    17   7 N        2.692    -0.199    25.325     7.474
    18   6 C        3.818    -0.111    22.598     6.766
    19   8 O        0.857    -0.587    25.810     6.811
    20   8 O        0.857    -0.619    26.582     6.912
    21   6 C        2.754     0.260    22.626     7.789
    22   6 C        2.678     0.364    20.833     7.469
    23   6 C        3.779     0.016    20.326     6.423
    24   8 O        0.856    -0.505    23.896     6.554
    25   8 O        0.860    -0.502    23.834     6.546
    26   8 O        0.858    -0.614    26.456     6.896
    27   7 N        2.689    -0.205    25.459     7.494
    28   6 C        3.786    -0.062    21.705     6.636
    29   6 C        2.750     0.263    22.570     7.779
    30   6 C        3.784    -0.063    21.719     6.638
    31   6 C        3.775     0.015    20.358     6.429
    32   8 O        0.858    -0.432    22.334     6.336
    33   6 C        3.779    -0.058    21.647     6.628
    34   7 N        2.684    -0.183    24.963     7.420
    35   6 C        3.820    -0.064    21.717     6.632
    36   6 C        3.725     0.020    20.335     6.439
    37   6 C        2.749     0.289    22.101     7.698
    38   6 C        3.799    -0.015    20.852     6.502
    39   7 N        2.621    -0.373    29.638     8.085
    40   6 C        3.791     0.009    20.432     6.437
    41   8 O        0.857    -0.430    22.289     6.330
    42  16 S        1.956    -0.227   150.742    20.664
    43   7 N        2.681    -0.192    25.171     7.451
    44   6 C        3.836    -0.037    21.201     6.551
    45   6 C        3.738    -0.054    21.635     6.637
    46   6 C        2.765     0.263    22.566     7.780
    47   6 C        3.732    -0.113    22.753     6.809
    48   6 C        3.779    -0.060    21.686     6.634
    49   8 O        0.858    -0.446    22.615     6.376
    50   6 C        3.738    -0.110    22.686     6.796
    51   6 C        3.820    -0.064    21.707     6.630
    52   6 C        3.808    -0.065    21.743     6.638
    53   6 C        3.780     0.022    20.218     6.406
    54   7 N        2.692    -0.234    26.136     7.593
    55   6 C        2.752     0.239    23.002     7.853
    56   7 N        1.782    -0.418    31.828     8.355
    57   7 N        2.643    -0.333    28.559     7.937
    58   6 C        3.720    -0.106    22.655     6.798
    59   1 H        0.858     0.185     1.184     1.704
    60   1 H        0.927     0.053     2.284     2.363
    61   1 H        0.861     0.223     0.995     1.563
    62   1 H        0.913     0.046     2.375     2.411
    63   1 H        0.927     0.044     2.394     2.420
    64   1 H        0.861     0.194     1.135     1.669
    65   1 H        0.926     0.074     2.038     2.233
    66   1 H        0.896     0.027     2.638     2.541
    67   1 H        0.925     0.011     2.869     2.649
    68   1 H        0.926     0.012     2.854     2.642
    69   1 H        0.923     0.049     2.335     2.389
    70   1 H        0.862     0.265     0.828     1.425
    71   1 H        0.925     0.033     2.543     2.494
    72   1 H        0.928     0.047     2.356     2.400
    73   1 H        0.929     0.080     1.978     2.199
    74   1 H        0.855     0.202     1.097     1.641
    75   1 H        0.923     0.047     2.363     2.404
    76   1 H        0.924     0.053     2.282     2.362
    77   1 H        0.922     0.047     2.359     2.402
    78   1 H        0.928     0.043     2.415     2.430
    79   1 H        0.920     0.070     2.091     2.262
    80   1 H        0.919     0.045     2.391     2.418
    81   1 H        0.920     0.007     2.934     2.679
    82   1 H        0.860     0.183     1.195     1.713
    83   1 H        0.927     0.048     2.339     2.392
    84   1 H        0.924     0.082     1.959     2.189
    85   1 H        0.926     0.031     2.576     2.510
    86   1 H        0.923     0.009     2.907     2.666
    87   1 H        0.929     0.063     2.169     2.303
    88   1 H        0.931     0.051     2.307     2.375
    89   1 H        0.859     0.179     1.221     1.731
    90   1 H        0.862     0.127     1.571     1.964
    91   1 H        0.929     0.067     2.114     2.274
    92   1 H        0.857     0.170     1.274     1.769
    93   1 H        0.929     0.069     2.101     2.267
    94   1 H        0.930     0.066     2.130     2.282
    95   1 H        0.919     0.054     2.267     2.355
    96   1 H        0.922     0.042     2.418     2.432
    97   1 H        0.923     0.023     2.686     2.563
    98   1 H        0.927     0.039     2.466     2.455
    99   1 H        0.923     0.026     2.638     2.540
   100   1 H        0.919     0.030     2.585     2.515
   101   1 H        0.925     0.046     2.373     2.409
   102   1 H        0.927     0.036     2.502     2.473
   103   1 H        0.923     0.033     2.539     2.492
   104   1 H        0.926     0.047     2.362     2.403
   105   1 H        0.923     0.063     2.166     2.302
   106   1 H        0.928     0.058     2.218     2.329
   107   1 H        0.918     0.042     2.427     2.437
   108   1 H        0.928     0.054     2.275     2.358
   109   1 H        0.926     0.024     2.668     2.554
   110   1 H        0.924     0.040     2.450     2.448
   111   1 H        0.861     0.174     1.249     1.751
   112   1 H        0.856     0.116     1.660     2.019
   113   1 H        0.860     0.158     1.348     1.818
   114   1 H        0.861     0.167     1.289     1.778
   115   1 H        0.928     0.100     1.785     2.089
   116   1 H        0.905     0.015     2.811     2.623
   117   1 H        0.916     0.051     2.312     2.378

 Mol. C6AA /au·bohr⁶  :     136447.571821
 Mol. C8AA /au·bohr⁸  :    3093045.854950
 Mol. α(0) /au        :        551.635449


Wiberg/Mayer (AO) data.
largest (>0.10) Wiberg bond orders for each atom

 ---------------------------------------------------------------------------
     #   Z sym  total        # sym  WBO       # sym  WBO       # sym  WBO
 ---------------------------------------------------------------------------
     1   7 N    3.395 --     7 C    1.238     2 C    0.958    59 H    0.926
                             9 O    0.195
     2   6 C    3.964 --    51 C    0.977    60 H    0.964     1 N    0.958
                             3 C    0.927
     3   6 C    3.949 --     4 O    1.691     5 N    1.264     2 C    0.927
     4   8 O    2.002 --     3 C    1.691     5 N    0.192
     5   7 N    3.450 --     3 C    1.264     6 C    1.008    61 H    0.909
                             4 O    0.192
     6   6 C    3.978 --     5 N    1.008    46 C    0.981    58 C    0.954
                            62 H    0.937
     7   6 C    3.942 --     9 O    1.710     1 N    1.238     8 C    0.915
     8   6 C    3.959 --    11 C    0.976    10 N    0.968    63 H    0.961
                             7 C    0.915
     9   8 O    2.030 --     7 C    1.710     1 N    0.195
    10   7 N    3.429 --    12 C    1.258     8 C    0.968    64 H    0.927
                            15 O    0.179
    11   6 C    3.976 --    13 C    0.989     8 C    0.976    66 H    0.968
                            65 H    0.967
    12   6 C    3.950 --    15 O    1.631    10 N    1.258    14 C    0.952
    13   6 C    3.964 --    11 C    0.989    68 H    0.980    67 H    0.968
                            16 C    0.917
    14   6 C    3.970 --    17 N    0.992    18 C    0.957    12 C    0.952
                            69 H    0.946
    15   8 O    1.940 --    12 C    1.631    10 N    0.179
    16   6 C    3.946 --    19 O    1.531    20 O    1.480    13 C    0.917
    17   7 N    3.474 --    21 C    1.373    14 C    0.992    70 H    0.777
                            24 O    0.197
    18   6 C    3.965 --    72 H    0.980    71 H    0.966    14 C    0.957
                            22 C    0.877
    19   8 O    1.846 --    16 C    1.531    20 O    0.230
    20   8 O    1.779 --    16 C    1.480    19 O    0.230
    21   6 C    3.955 --    24 O    1.561    17 N    1.373    23 C    0.934
    22   6 C    3.942 --    25 O    1.653    26 O    1.381    18 C    0.877
    23   6 C    3.951 --    27 N    0.967    73 H    0.961    28 C    0.957
                            21 C    0.934
    24   8 O    1.931 --    21 C    1.561    17 N    0.197
    25   8 O    1.969 --    22 C    1.653    26 O    0.216
    26   8 O    1.862 --    22 C    1.381    25 O    0.216    70 H    0.123
    27   7 N    3.450 --    29 C    1.282    23 C    0.967    74 H    0.895
                            32 O    0.215
    28   6 C    3.987 --    30 C    1.011    76 H    0.977    75 H    0.975
                            23 C    0.957
    29   6 C    3.956 --    32 O    1.679    27 N    1.282    31 C    0.929
    30   6 C    3.993 --    28 C    1.011    33 C    0.988    78 H    0.983
                            77 H    0.976
    31   6 C    3.954 --    35 C    0.994    79 H    0.954    34 N    0.938
                            29 C    0.929
    32   8 O    2.022 --    29 C    1.679    27 N    0.215
    33   6 C    3.989 --    36 C    1.018    30 C    0.988    81 H    0.974
                            80 H    0.971
    34   7 N    3.453 --    37 C    1.293    31 C    0.938    82 H    0.930
                            41 O    0.205
    35   6 C    3.988 --    38 C    1.012    31 C    0.994    83 H    0.966
                            84 H    0.958
    36   6 C    3.991 --    33 C    1.018    39 N    1.005    86 H    0.980
                            85 H    0.974
    37   6 C    3.955 --    41 O    1.692    34 N    1.293    40 C    0.899
    38   6 C    3.978 --    35 C    1.012    42 S    0.987    87 H    0.974
                            88 H    0.968
    39   7 N    2.978 --    36 C    1.005    90 H    0.976    89 H    0.946
    40   6 C    3.959 --    43 N    0.973    44 C    0.969    91 H    0.961
                            37 C    0.899
    41   8 O    2.026 --    37 C    1.692    34 N    0.205
    42  16 S    2.092 --    45 C    1.012    38 C    0.987
    43   7 N    3.373 --    46 C    1.221    40 C    0.973    92 H    0.929
                            49 O    0.171
    44   6 C    3.984 --    48 C    0.998    47 C    0.986    93 H    0.971
                            40 C    0.969
    45   6 C    3.966 --    42 S    1.012    96 H    0.980    95 H    0.974
                            94 H    0.974
    46   6 C    3.932 --    49 O    1.663    43 N    1.221     6 C    0.981
    47   6 C    3.989 --    98 H    0.989    99 H    0.989    97 H    0.987
                            44 C    0.986
    48   6 C    3.991 --    50 C    1.007    44 C    0.998   100 H    0.978
                           101 H    0.977
    49   8 O    1.973 --    46 C    1.663    43 N    0.171
    50   6 C    3.994 --    48 C    1.007   102 H    0.991   103 H    0.989
                           104 H    0.988
    51   6 C    3.992 --    52 C    1.013     2 C    0.977   105 H    0.973
                           106 H    0.962
    52   6 C    3.991 --    51 C    1.013    53 C    1.010   108 H    0.974
                           107 H    0.965
    53   6 C    3.979 --    52 C    1.010    54 N    0.986   109 H    0.968
                           110 H    0.962
    54   7 N    3.297 --    55 C    1.147    53 C    0.986   111 H    0.926
                            56 N    0.156
    55   6 C    3.965 --    56 N    1.732    54 N    1.147    57 N    1.061
    56   7 N    2.966 --    55 C    1.732   112 H    0.940    54 N    0.156
    57   7 N    3.128 --    55 C    1.061   114 H    0.960   113 H    0.953
    58   6 C    3.980 --   117 H    0.986   116 H    0.985   115 H    0.977
                             6 C    0.954
    59   1 H    0.965 --     1 N    0.926
    60   1 H    0.997 --     2 C    0.964
    61   1 H    0.950 --     5 N    0.909
    62   1 H    0.997 --     6 C    0.937
    63   1 H    0.998 --     8 C    0.961
    64   1 H    0.962 --    10 N    0.927
    65   1 H    0.994 --    11 C    0.967
    66   1 H    0.998 --    11 C    0.968
    67   1 H    1.000 --    13 C    0.968
    68   1 H    1.000 --    13 C    0.980
    69   1 H    0.997 --    14 C    0.946
    70   1 H    0.930 --    17 N    0.777    26 O    0.123
    71   1 H    0.999 --    18 C    0.966
    72   1 H    0.997 --    18 C    0.980
    73   1 H    0.993 --    23 C    0.961
    74   1 H    0.959 --    27 N    0.895
    75   1 H    0.997 --    28 C    0.975
    76   1 H    0.997 --    28 C    0.977
    77   1 H    0.998 --    30 C    0.976
    78   1 H    0.998 --    30 C    0.983
    79   1 H    0.995 --    31 C    0.954
    80   1 H    0.998 --    33 C    0.971
    81   1 H    1.000 --    33 C    0.974
    82   1 H    0.966 --    34 N    0.930
    83   1 H    0.997 --    35 C    0.966
    84   1 H    0.993 --    35 C    0.958
    85   1 H    0.999 --    36 C    0.974
    86   1 H    1.000 --    36 C    0.980
    87   1 H    0.996 --    38 C    0.974
    88   1 H    0.997 --    38 C    0.968
    89   1 H    0.968 --    39 N    0.946
    90   1 H    0.984 --    39 N    0.976
    91   1 H    0.995 --    40 C    0.961
    92   1 H    0.971 --    43 N    0.929
    93   1 H    0.995 --    44 C    0.971
    94   1 H    0.995 --    45 C    0.974
    95   1 H    0.997 --    45 C    0.974
    96   1 H    0.998 --    45 C    0.980
    97   1 H    0.999 --    47 C    0.987
    98   1 H    0.998 --    47 C    0.989
    99   1 H    0.999 --    47 C    0.989
   100   1 H    0.999 --    48 C    0.978
   101   1 H    0.998 --    48 C    0.977
   102   1 H    0.999 --    50 C    0.991
   103   1 H    0.999 --    50 C    0.989
   104   1 H    0.998 --    50 C    0.988
   105   1 H    0.996 --    51 C    0.973
   106   1 H    0.996 --    51 C    0.962
   107   1 H    0.998 --    52 C    0.965
   108   1 H    0.996 --    52 C    0.974
   109   1 H    0.999 --    53 C    0.968
   110   1 H    0.998 --    53 C    0.962
   111   1 H    0.970 --    54 N    0.926
   112   1 H    0.987 --    56 N    0.940
   113   1 H    0.975 --    57 N    0.953
   114   1 H    0.972 --    57 N    0.960
   115   1 H    0.990 --    58 C    0.977
   116   1 H    0.999 --    58 C    0.985
   117   1 H    0.997 --    58 C    0.986
 ---------------------------------------------------------------------------

Topologies differ in total number of bonds
Writing topology from bond orders to xtbtopo.mol

molecular dipole:
                 x           y           z       tot (Debye)
 q only:        3.011      14.370       2.412
   full:        3.853      14.245       2.115      37.891
molecular quadrupole (traceless):
                xx          xy          yy          xz          yz          zz
 q only:       20.694      10.087     -62.327      59.961    -102.713      41.633
  q+dip:        8.893      22.453     -55.758      61.220    -106.451      46.865
   full:        8.573      24.025     -54.649      60.656    -107.115      46.076


           -------------------------------------------------
          | TOTAL ENERGY             -185.540604718603 Eh   |
          | GRADIENT NORM               0.404799389935 Eh/α |
          | HOMO-LUMO GAP               0.237723328472 eV   |
           -------------------------------------------------

------------------------------------------------------------------------
 * finished run on 2026/05/23 at 12:45:36.733     
------------------------------------------------------------------------
 total:
 * wall-time:     0 d,  0 h,  0 min, 32.279 sec
 *  cpu-time:     0 d,  0 h,  0 min, 41.743 sec
 * ratio c/w:     1.293 speedup
 SCF:
 * wall-time:     0 d,  0 h,  0 min, 31.323 sec
 *  cpu-time:     0 d,  0 h,  0 min, 40.494 sec
 * ratio c/w:     1.293 speedup

normal termination of xtb
