      -----------------------------------------------------------      
     |                   =====================                   |     
     |                           x T B                           |     
     |                   =====================                   |     
     |                         S. Grimme                         |     
     |          Mulliken Center for Theoretical Chemistry        |     
     |                    University of Bonn                     |     
      -----------------------------------------------------------      

   * xtb version 6.7.1 (26dd68d) compiled by 'froitzheim@fs7' on 2026-05-14

   xtb is free software: you can redistribute it and/or modify it under
   the terms of the GNU Lesser General Public License as published by
   the Free Software Foundation, either version 3 of the License, or
   (at your option) any later version.
   
   xtb is distributed in the hope that it will be useful,
   but WITHOUT ANY WARRANTY; without even the implied warranty of
   MERCHANTABILITY or FITNESS FOR A PARTICULAR PURPOSE.  See the
   GNU Lesser General Public License for more details.
   
   Cite this work as:
   * C. Bannwarth, E. Caldeweyher, S. Ehlert, A. Hansen, P. Pracht,
     J. Seibert, S. Spicher, S. Grimme, WIREs Comput. Mol. Sci., 2020, 11,
     e01493. DOI: 10.1002/wcms.1493
   
   for g-xTB:
   * T. Froitzheim, M. Müller, A. Hansen, S. Grimme, ChemRxiv, 2025, preprint.
     DOI: 10.26434/chemrxiv-2025-bjxv
   for GFN2-xTB:
   * C. Bannwarth, S. Ehlert and S. Grimme., J. Chem. Theory Comput., 2019,
     15, 1652-1671. DOI: 10.1021/acs.jctc.8b01176
   for GFN1-xTB:
   * S. Grimme, C. Bannwarth, P. Shushkov, J. Chem. Theory Comput., 2017,
     13, 1989-2009. DOI: 10.1021/acs.jctc.7b00118
   for GFN0-xTB:
   * P. Pracht, E. Caldeweyher, S. Ehlert, S. Grimme, ChemRxiv, 2019, preprint.
     DOI: 10.26434/chemrxiv.8326202.v1
   for GFN-FF:
   * S. Spicher and S. Grimme, Angew. Chem. Int. Ed., 2020, 59, 15665-15673.
     DOI: 10.1002/anie.202004239
   
   for ALPB and GBSA implicit solvation:
   * S. Ehlert, M. Stahn, S. Spicher, S. Grimme, J. Chem. Theory Comput.,
     2021, 17, 4250-4261. DOI: 10.1021/acs.jctc.1c00471
   
   for ddCOSMO and CPCM-X implicit solvation:
   * M. Stahn, S. Ehlert, S. Grimme, J. Phys. Chem. A,
     2023, XX, XXXX-XXXX. DOI: 10.1021/acs.jpca.3c04382
   
   for DFT-D4:
   * E. Caldeweyher, C. Bannwarth and S. Grimme, J. Chem. Phys., 2017,
     147, 034112. DOI: 10.1063/1.4993215
   * E. Caldeweyher, S. Ehlert, A. Hansen, H. Neugebauer, S. Spicher,
     C. Bannwarth and S. Grimme, J. Chem. Phys., 2019, 150, 154122.
     DOI: 10.1063/1.5090222
   * E. Caldeweyher, J.-M. Mewes, S. Ehlert and S. Grimme, Phys. Chem. Chem. Phys.
     2020, 22, 8499-8512. DOI: 10.1039/D0CP00502A
   
   for sTDA-xTB:
   * S. Grimme and C. Bannwarth, J. Chem. Phys., 2016, 145, 054103.
     DOI: 10.1063/1.4959605
   
   in the mass-spec context:
   * V. Asgeirsson, C. Bauer and S. Grimme, Chem. Sci., 2017, 8, 4879.
     DOI: 10.1039/c7sc00601b
   * J. Koopman and S. Grimme, ACS Omega 2019, 4, 12, 15120-15133.
     DOI: 10.1021/acsomega.9b02011
   
   for metadynamics refer to:
   * S. Grimme, J. Chem. Theory Comput., 2019, 155, 2847-2862
     DOI: 10.1021/acs.jctc.9b00143
   
   for SPH calculations refer to:
   * S. Spicher and S. Grimme, J. Chem. Theory Comput., 2021, 17, 1701-1714
     DOI: 10.1021/acs.jctc.0c01306
   
   for ONIOM refer to:
   * C. Plett, A. Katbashev, S. Ehlert, S. Grimme, M. Bursch,
     Phys. Chem. Chem. Phys., 2023, 25, 17860-17868. DOI: 10.1039/D3CP02178E
   
   for DIPRO refer to:
   * J. Kohn, N. Gildemeister, S. Grimme, D. Fazzi, A. Hansen,
     J. Chem. Phys. 159, 144106 (2023). DOI: 10.1063/5.0167484
   
   for PTB refer to:
   * S. Grimme, M. Mueller, A. Hansen, J. Chem. Phys., 2023, 158, 124111.
     DOI: 10.1063/5.0137838
   
   with help from (in alphabetical order)
   P. Atkinson, C. Bannwarth, F. Bohle, G. Brandenburg, E. Caldeweyher,
   M. Checinski, S. Dohm, S. Ehlert, S. Ehrlich, M. Friede, T. Froitzheim,
   I. Gerasimov, C. Hölzer, A. Katbashev, J. Kohn, J. Koopman, C. Lavigne,
   S. Lehtola, F. März, M. Müller, F. Musil, H. Neugebauer, J. Pisarek,
   C. Plett, P. Pracht, F. Pultar, J. Seibert, P. Shushkov, S. Spicher,
   M. Stahn, M. Steiner, T. Strunk, J. Stückrath, T. Rose, and J. Unsleber
   
 * started run on 2026/05/23 at 12:42:38.069     
   ID    Z sym.   atoms
    1    7 N      1, 5, 10, 17, 22, 26, 27, 33, 41
    2    6 C      2, 3, 6-8, 11-14, 16, 18-21, 23, 28-30, 34-39
    3    8 O      4, 9, 15, 24, 25, 31, 32, 40
    4    1 H      42-82

           -------------------------------------------------
          |                Calculation Setup                |
           -------------------------------------------------

          program call               : /home/xchen/software/xtb-6.7.1-gxtb/bin/xtb /home/xchen/Test/benchmark/md_sampled/09_5_0584_0/snap_0151.xyz --charge 0 --gxtb --norestart
          coordinate file            : /home/xchen/Test/benchmark/md_sampled/09_5_0584_0/snap_0151.xyz
          omp threads                :                    48

core increment energy         -1.8448408193529E+03 Eh
dispersion energy              1.6880855052543E-02 Eh
molecular charge               0.0000000000000E+00 e
number of electrons            2.2999999999795E+02 e
number of unpaired electrons   0.0000000000000E+00 e
wavefunction                   restricted
integral cutoff                2.6907767250513E+01 bohr
energy convergence             1.0000000000000E-06 Eh
density convergence            2.0000000000000E-05 e

------------------------------------------------------------
  cycle        total energy    energy error   density error
------------------------------------------------------------
      1     -2032.863183333  -1.8803924E+02   0.0000000E+00
      2     -2033.200224274  -3.3704094E-01   2.2545386E-02
      3     -2033.422251686  -2.2202741E-01   1.7988790E-02
      4     -2033.906469934  -4.8421825E-01   1.4366523E-02
      5     -2033.913497238  -7.0273040E-03   1.0588260E-03
      6     -2033.914047329  -5.5009182E-04   2.5962219E-04
      7     -2033.914097714  -5.0384981E-05   8.5794205E-05
      8     -2033.914101116  -3.4018288E-06   2.1603903E-05
      9     -2033.914101500  -3.8327047E-07   3.8761278E-06
------------------------------------------------------------

electronic energy             -1.8909016300166E+02 Eh
total energy                  -2.0339141014995E+03 Eh

Post processing:
 | Mayer-Wiberg bond orders
 | Molecular Multipole Moments

 total:                                  14.710 sec
 - increment                              0.000 sec (  0%)
 - repulsion                              0.013 sec (  0%)
 - dispersion                             0.255 sec (  1%)
 - coulomb                                0.173 sec (  1%)
 - exchange                               0.013 sec (  0%)
 - hamiltonian                            0.419 sec (  2%)
 - acp                                    0.353 sec (  2%)
 - spin polarization                      0.000 sec (  0%)
 - post processing                        0.158 sec (  1%)
 - scc                                   11.000 sec ( 74%)
 - coulomb gradient                       0.076 sec (  0%)
 - dispersion gradient                    0.120 sec (  0%)
 - exchange gradient                      0.202 sec (  1%)
 - repulsion gradient                     0.005 sec (  0%)
 - acp gradient                           0.737 sec (  5%)
 - hamiltonian gradient                   1.325 sec (  9%)
 - gradient                               2.465 sec ( 16%)

         :::::::::::::::::::::::::::::::::::::::::::::::::::::
         ::                     SUMMARY                     ::
         :::::::::::::::::::::::::::::::::::::::::::::::::::::
         :: total energy           -2033.914101499507 Eh    ::
         :: gradient norm              0.347130171866 Eh/a0 ::
         :: HOMO-LUMO gap              9.056918733446 eV    ::
         ::.................................................::
         :: add. restraining           0.000000000000 Eh    ::
         :: total charge              -0.000000000000 e     ::
         :::::::::::::::::::::::::::::::::::::::::::::::::::::

           -------------------------------------------------
          |                Property Printout                |
           -------------------------------------------------

    * Orbital Energies and Occupations
------------------------------------------------------------------
      #    Occupation            Energy/Eh            Energy/eV
------------------------------------------------------------------
      1        2.0000           -1.3694607             -37.2649
    ...           ...                  ...                  ...
    103        2.0000           -0.3931306             -10.6976
    104        2.0000           -0.3903974             -10.6233
    105        2.0000           -0.3854760             -10.4893
    106        2.0000           -0.3761479             -10.2355
    107        2.0000           -0.3741762             -10.1819
    108        2.0000           -0.3682725             -10.0212
    109        2.0000           -0.3657663              -9.9530
    110        2.0000           -0.3638174              -9.9000
    111        2.0000           -0.3598795              -9.7928
    112        2.0000           -0.3589595              -9.7678
    113        2.0000           -0.3515241              -9.5655
    114        2.0000           -0.3455870              -9.4039
    115        2.0000           -0.3323832              -9.0446 (HOMO)
    116                          0.0004524               0.0123 (LUMO)
    117                          0.0078588               0.2138
    118                          0.0178602               0.4860
    119                          0.0241584               0.6574
    120                          0.0285051               0.7757
    121                          0.0424872               1.1561
    122                          0.0466124               1.2684
    123                          0.0571421               1.5549
    124                          0.1429900               3.8910
    125                          0.1731483               4.7116
    126                          0.1750982               4.7647
    ...                                ...                  ...
    205                          0.7717080              20.9992
------------------------------------------------------------------
               HL-Gap            0.3328356 Eh            9.0569 eV
------------------------------------------------------------------

Atomic charges and shell populations (in atomic units):
------------------------------------------------------
     #    Z                q          p(s)       p(p)
------------------------------------------------------
     1    7 N      -0.330530      1.359023   3.971507
     2    6 C       0.002724      1.117345   2.879931
     3    6 C       0.419447      1.100746   2.479807
     4    8 O      -0.582740      1.858976   4.723764
     5    7 N      -0.327903      1.384717   3.943186
     6    6 C      -0.004145      1.136504   2.867642
     7    6 C       0.426805      1.100651   2.472545
     8    6 C      -0.021621      1.103646   2.917975
     9    8 O      -0.527889      1.844500   4.683390
    10    7 N      -0.294657      1.340337   3.954320
    11    6 C      -0.171664      1.159169   3.012495
    12    6 C       0.407102      1.095208   2.497690
    13    6 C      -0.172149      1.154210   3.017939
    14    6 C       0.006949      1.123632   2.869419
    15    8 O      -0.545953      1.858353   4.687599
    16    6 C      -0.223342      1.166469   3.056873
    17    7 N      -0.299021      1.342202   3.956818
    18    6 C      -0.197184      1.184395   3.012789
    19    6 C      -0.099720      1.156550   2.943170
    20    6 C       0.413438      1.097012   2.489551
    21    6 C       0.391460      1.119915   2.488625
    22    7 N      -0.488759      1.424389   4.064370
    23    6 C       0.020336      1.108262   2.871402
    24    8 O      -0.585092      1.856031   4.729061
    25    8 O      -0.509119      1.858016   4.651103
    26    7 N      -0.431563      1.400662   4.030901
    27    7 N      -0.339310      1.350451   3.988859
    28    6 C      -0.200459      1.165128   3.035332
    29    6 C       0.401603      1.102711   2.495685
    30    6 C       0.405239      1.112918   2.481843
    31    8 O      -0.514287      1.858588   4.655699
    32    8 O      -0.522153      1.858167   4.663985
    33    7 N      -0.416784      1.358826   4.057958
    34    6 C      -0.107077      1.129926   2.977150
    35    6 C      -0.269538      1.170609   3.098929
    36    6 C      -0.242365      1.155137   3.087227
    37    6 C      -0.149468      1.146835   3.002633
    38    6 C      -0.201510      1.142739   3.058771
    39    6 C       0.399793      1.111249   2.488958
    40    8 O      -0.525568      1.858863   4.666705
    41    7 N      -0.446482      1.388759   4.057723
    42    1 H       0.289301      0.710699
    43    1 H       0.118438      0.881562
    44    1 H       0.271155      0.728845
    45    1 H       0.130632      0.869368
    46    1 H       0.138717      0.861283
    47    1 H       0.260805      0.739195
    48    1 H       0.086690      0.913310
    49    1 H       0.115444      0.884556
    50    1 H       0.100098      0.899902
    51    1 H       0.079716      0.920284
    52    1 H       0.140281      0.859719
    53    1 H       0.105761      0.894239
    54    1 H       0.120657      0.879343
    55    1 H       0.292856      0.707144
    56    1 H       0.115107      0.884893
    57    1 H       0.119198      0.880802
    58    1 H       0.087486      0.912514
    59    1 H       0.091719      0.908281
    60    1 H       0.215445      0.784555
    61    1 H       0.218761      0.781239
    62    1 H       0.161989      0.838011
    63    1 H       0.264598      0.735402
    64    1 H       0.233659      0.766341
    65    1 H       0.290923      0.709077
    66    1 H       0.102039      0.897961
    67    1 H       0.135799      0.864201
    68    1 H       0.236270      0.763730
    69    1 H       0.260585      0.739415
    70    1 H       0.127511      0.872489
    71    1 H       0.072139      0.927861
    72    1 H       0.103607      0.896393
    73    1 H       0.108975      0.891025
    74    1 H       0.099389      0.900611
    75    1 H       0.085380      0.914620
    76    1 H       0.081696      0.918304
    77    1 H       0.135703      0.864297
    78    1 H       0.103974      0.896026
    79    1 H       0.127247      0.872753
    80    1 H       0.126843      0.873157
    81    1 H       0.258266      0.741734
    82    1 H       0.238297      0.761703
------------------------------------------------------


Wiberg/Mayer (AO) data.
largest (>0.10) Wiberg bond orders for each atom

 ---------------------------------------------------------------------------
     #   Z sym  total        # sym  WBO       # sym  WBO       # sym  WBO
 ---------------------------------------------------------------------------
     1   7 N    3.321 --     7 C    1.214     2 C    0.980    42 O    0.872
                             9 C    0.156
     2   6 C    3.941 --     1 N    0.980     3 C    0.944    43 O    0.942
                            34 C    0.939
     3   6 C    3.865 --     4 C    1.575     5 N    1.270     2 C    0.944
     4   8 C    1.867 --     3 C    1.575     5 N    0.155
     5   7 N    3.355 --     3 C    1.270     6 C    0.943    44 O    0.894
                             4 C    0.155
     6   6 C    3.923 --    37 C    0.980    45 O    0.945     5 N    0.943
                            29 C    0.923
     7   6 C    3.865 --     9 C    1.680     1 N    1.214     8 C    0.878
     8   6 C    3.928 --    11 C    1.002    10 N    0.983    46 O    0.915
                             7 C    0.878
     9   8 C    1.980 --     7 C    1.680     1 N    0.156
    10   7 N    3.401 --    12 C    1.286     8 C    0.983    47 O    0.880
                            15 C    0.165
    11   6 C    3.959 --     8 C    1.002    13 C    0.986    48 O    0.960
                            49 O    0.951
    12   6 C    3.887 --    15 C    1.614    10 N    1.286    14 C    0.909
    13   6 C    3.966 --    16 C    1.021    11 C    0.986    51 O    0.960
                            50 O    0.958
    14   6 C    3.934 --    17 N    0.977    18 C    0.976    52 O    0.943
                            12 C    0.909
    15   8 C    1.907 --    12 C    1.614    10 N    0.165
    16   6 C    3.957 --    13 C    1.021    53 O    0.964    54 O    0.957
                            19 C    0.941
    17   7 N    3.383 --    20 C    1.279    14 C    0.977    55 O    0.883
                            24 C    0.154
    18   6 C    3.955 --    14 C    0.976    57 O    0.957    56 O    0.941
                            21 C    0.918
    19   6 C    3.943 --    22 N    1.058    59 O    0.963    58 O    0.951
                            16 C    0.941
    20   6 C    3.870 --    24 C    1.580    17 N    1.279    23 C    0.924
    21   6 C    3.860 --    25 C    1.697    26 N    1.208    18 C    0.918
    22   7 N    2.987 --    19 C    1.058    61 O    0.934    60 O    0.931
    23   6 C    3.934 --    27 N    0.990    28 C    0.965    20 C    0.924
                            62 O    0.923
    24   8 C    1.880 --    20 C    1.580    17 N    0.154
    25   8 C    1.975 --    21 C    1.697    26 N    0.157
    26   7 N    3.224 --    21 C    1.208    64 O    0.918    63 O    0.906
                            25 C    0.157
    27   7 N    3.335 --    29 C    1.215    23 C    0.990    65 O    0.866
                            31 C    0.169
    28   6 C    3.957 --    23 C    0.965    66 O    0.963    67 O    0.945
                            30 C    0.936
    29   6 C    3.880 --    31 C    1.669    27 N    1.215     6 C    0.923
    30   6 C    3.868 --    32 C    1.682    33 N    1.215    28 C    0.936
    31   8 C    1.953 --    29 C    1.669    27 N    0.169
    32   8 C    1.951 --    30 C    1.682    33 N    0.167
    33   7 N    3.252 --    30 C    1.215    68 O    0.923    69 O    0.909
                            32 C    0.167
    34   6 C    3.966 --    36 C    1.019    35 C    1.002     2 C    0.939
                            70 O    0.928
    35   6 C    3.957 --    34 C    1.002    72 O    0.975    71 O    0.973
                            73 O    0.972
    36   6 C    3.961 --    34 C    1.019    76 O    0.974    75 O    0.971
                            74 O    0.967
    37   6 C    3.953 --    38 C    0.999     6 C    0.980    78 O    0.953
                            77 O    0.952
    38   6 C    3.960 --    37 C    0.999    39 C    0.974    80 O    0.949
                            79 O    0.947
    39   6 C    3.870 --    40 C    1.690    41 N    1.173    38 C    0.974
    40   8 C    1.941 --    39 C    1.690    41 N    0.151
    41   7 N    3.192 --    39 C    1.173    82 O    0.917    81 O    0.912
                            40 C    0.151
    42   1 O    0.916 --     1 N    0.872
    43   1 O    0.986 --     2 C    0.942
    44   1 O    0.926 --     5 N    0.894
    45   1 O    0.983 --     6 C    0.945
    46   1 O    0.981 --     8 C    0.915
    47   1 O    0.932 --    10 N    0.880
    48   1 O    0.992 --    11 C    0.960
    49   1 O    0.987 --    11 C    0.951
    50   1 O    0.990 --    13 C    0.958
    51   1 O    0.994 --    13 C    0.960
    52   1 O    0.980 --    14 C    0.943
    53   1 O    0.989 --    16 C    0.964
    54   1 O    0.985 --    16 C    0.957
    55   1 O    0.914 --    17 N    0.883
    56   1 O    0.987 --    18 C    0.941
    57   1 O    0.986 --    18 C    0.957
    58   1 O    0.992 --    19 C    0.951
    59   1 O    0.992 --    19 C    0.963
    60   1 O    0.954 --    22 N    0.931
    61   1 O    0.952 --    22 N    0.934
    62   1 O    0.974 --    23 C    0.923
    63   1 O    0.930 --    26 N    0.906
    64   1 O    0.945 --    26 N    0.918
    65   1 O    0.915 --    27 N    0.866
    66   1 O    0.990 --    28 C    0.963
    67   1 O    0.982 --    28 C    0.945
    68   1 O    0.944 --    33 N    0.923
    69   1 O    0.932 --    33 N    0.909
    70   1 O    0.984 --    34 C    0.928
    71   1 O    0.995 --    35 C    0.973
    72   1 O    0.989 --    35 C    0.975
    73   1 O    0.988 --    35 C    0.972
    74   1 O    0.990 --    36 C    0.967
    75   1 O    0.993 --    36 C    0.971
    76   1 O    0.993 --    36 C    0.974
    77   1 O    0.982 --    37 C    0.952
    78   1 O    0.989 --    37 C    0.953
    79   1 O    0.984 --    38 C    0.947
    80   1 O    0.984 --    38 C    0.949
    81   1 O    0.933 --    41 N    0.912
    82   1 O    0.943 --    41 N    0.917
 ---------------------------------------------------------------------------

Topologies differ in total number of bonds
Writing topology from bond orders to xtbtopo.mol

Atomic dipole moments (in atomic units):
---------------------------------------------------------
     #    Z                 x            y            z
---------------------------------------------------------
           total    -1.946385     3.602669    -3.023880
---------------------------------------------------------
         |total|     5.090333    12.938335 Debye


           -------------------------------------------------
          | TOTAL ENERGY            -2033.914101499507 Eh   |
          | GRADIENT NORM               0.347130171866 Eh/α |
           -------------------------------------------------

------------------------------------------------------------------------
 * finished run on 2026/05/23 at 12:42:53.725     
------------------------------------------------------------------------
 total:
 * wall-time:     0 d,  0 h,  0 min, 15.655 sec
 *  cpu-time:     0 d,  0 h,  0 min, 29.706 sec
 * ratio c/w:     1.898 speedup
 SCF:
 * wall-time:     0 d,  0 h,  0 min, 15.313 sec
 *  cpu-time:     0 d,  0 h,  0 min, 29.372 sec
 * ratio c/w:     1.918 speedup

normal termination of xtb
