      -----------------------------------------------------------      
     |                   =====================                   |     
     |                           x T B                           |     
     |                   =====================                   |     
     |                         S. Grimme                         |     
     |          Mulliken Center for Theoretical Chemistry        |     
     |                    University of Bonn                     |     
      -----------------------------------------------------------      

   * xtb version 6.7.1 (edcfbbe) compiled by 'albert@albert-system' on 2024-07-22

   xtb is free software: you can redistribute it and/or modify it under
   the terms of the GNU Lesser General Public License as published by
   the Free Software Foundation, either version 3 of the License, or
   (at your option) any later version.
   
   xtb is distributed in the hope that it will be useful,
   but WITHOUT ANY WARRANTY; without even the implied warranty of
   MERCHANTABILITY or FITNESS FOR A PARTICULAR PURPOSE.  See the
   GNU Lesser General Public License for more details.
   
   Cite this work as:
   * C. Bannwarth, E. Caldeweyher, S. Ehlert, A. Hansen, P. Pracht,
     J. Seibert, S. Spicher, S. Grimme, WIREs Comput. Mol. Sci., 2020, 11,
     e01493. DOI: 10.1002/wcms.1493
   
   for GFN2-xTB:
   * C. Bannwarth, S. Ehlert and S. Grimme., J. Chem. Theory Comput., 2019,
     15, 1652-1671. DOI: 10.1021/acs.jctc.8b01176
   for GFN1-xTB:
   * S. Grimme, C. Bannwarth, P. Shushkov, J. Chem. Theory Comput., 2017,
     13, 1989-2009. DOI: 10.1021/acs.jctc.7b00118
   for GFN0-xTB:
   * P. Pracht, E. Caldeweyher, S. Ehlert, S. Grimme, ChemRxiv, 2019, preprint.
     DOI: 10.26434/chemrxiv.8326202.v1
   for GFN-FF:
   * S. Spicher and S. Grimme, Angew. Chem. Int. Ed., 2020, 59, 15665-15673.
     DOI: 10.1002/anie.202004239
   
   for ALPB and GBSA implicit solvation:
   * S. Ehlert, M. Stahn, S. Spicher, S. Grimme, J. Chem. Theory Comput.,
     2021, 17, 4250-4261. DOI: 10.1021/acs.jctc.1c00471
   
   for ddCOSMO and CPCM-X implicit solvation:
   * M. Stahn, S. Ehlert, S. Grimme, J. Phys. Chem. A,
     2023, XX, XXXX-XXXX. DOI: 10.1021/acs.jpca.3c04382
   
   for DFT-D4:
   * E. Caldeweyher, C. Bannwarth and S. Grimme, J. Chem. Phys., 2017,
     147, 034112. DOI: 10.1063/1.4993215
   * E. Caldeweyher, S. Ehlert, A. Hansen, H. Neugebauer, S. Spicher,
     C. Bannwarth and S. Grimme, J. Chem. Phys., 2019, 150, 154122.
     DOI: 10.1063/1.5090222
   * E. Caldeweyher, J.-M. Mewes, S. Ehlert and S. Grimme, Phys. Chem. Chem. Phys.
     2020, 22, 8499-8512. DOI: 10.1039/D0CP00502A
   
   for sTDA-xTB:
   * S. Grimme and C. Bannwarth, J. Chem. Phys., 2016, 145, 054103.
     DOI: 10.1063/1.4959605
   
   in the mass-spec context:
   * V. Asgeirsson, C. Bauer and S. Grimme, Chem. Sci., 2017, 8, 4879.
     DOI: 10.1039/c7sc00601b
   * J. Koopman and S. Grimme, ACS Omega 2019, 4, 12, 15120-15133.
     DOI: 10.1021/acsomega.9b02011
   
   for metadynamics refer to:
   * S. Grimme, J. Chem. Theory Comput., 2019, 155, 2847-2862
     DOI: 10.1021/acs.jctc.9b00143
   
   for SPH calculations refer to:
   * S. Spicher and S. Grimme, J. Chem. Theory Comput., 2021, 17, 1701-1714
     DOI: 10.1021/acs.jctc.0c01306
   
   for ONIOM refer to:
   * C. Plett, A. Katbashev, S. Ehlert, S. Grimme, M. Bursch,
     Phys. Chem. Chem. Phys., 2023, 25, 17860-17868. DOI: 10.1039/D3CP02178E
   
   for DIPRO refer to:
   * J. Kohn, N. Gildemeister, S. Grimme, D. Fazzi, A. Hansen,
     J. Chem. Phys., 2023, just accepted.
   
   for PTB refer to:
   * S. Grimme, M. Mueller, A. Hansen, J. Chem. Phys., 2023, 158, 124111.
     DOI: 10.1063/5.0137838
   
   with help from (in alphabetical order)
   P. Atkinson, C. Bannwarth, F. Bohle, G. Brandenburg, E. Caldeweyher
   M. Checinski, S. Dohm, S. Ehlert, S. Ehrlich, I. Gerasimov, C. Hölzer
   A. Katbashev, J. Kohn, J. Koopman, C. Lavigne, S. Lehtola, F. März, M. Müller,
   F. Musil, H. Neugebauer, J. Pisarek, C. Plett, P. Pracht, F. Pultar,
   J. Seibert, P. Shushkov, S. Spicher, M. Stahn, M. Steiner, T. Strunk,
   J. Stückrath, T. Rose, and J. Unsleber
   
 * started run on 2026/05/23 at 12:29:51.938     
   ID    Z sym.   atoms
    1    7 N      1, 5, 10, 18, 28, 30, 37-39, 41, 47, 48, 56
    2    6 C      2, 3, 6-8, 11-14, 16, 17, 19-25, 27, 29, 31-34, 36, 40,
                  42-45, 49, 51-55
    3    8 O      4, 9, 15, 26, 35, 46, 50
    4    1 H      57-115

           -------------------------------------------------
          |                Calculation Setup                |
           -------------------------------------------------

          program call               : /home/xchen/software/xtb-6.7.1/xtb-dist/bin/xtb /home/xchen/Test/benchmark/md_sampled/03_6_0978_0/snap_0035.xyz --charge 0 --gfn 2 --norestart
          coordinate file            : /home/xchen/Test/benchmark/md_sampled/03_6_0978_0/snap_0035.xyz
          omp threads                :                    48


           -------------------------------------------------
          |                 G F N 2 - x T B                 |
           -------------------------------------------------

        Reference                      10.1021/acs.jctc.8b01176
      * Hamiltonian:
        H0-scaling (s, p, d)           1.850000    2.230000    2.230000
        zeta-weighting                 0.500000
      * Dispersion:
        s8                             2.700000
        a1                             0.520000
        a2                             5.000000
        s9                             5.000000
      * Repulsion:
        kExp                           1.500000    1.000000
        rExp                           1.000000
      * Coulomb:
        alpha                          2.000000
        third order                    shell-resolved
        anisotropic                    true
        a3                             3.000000
        a5                             4.000000
        cn-shift                       1.200000
        cn-exp                         4.000000
        max-rad                        5.000000


          ...................................................
          :                      SETUP                      :
          :.................................................:
          :  # basis functions                 283          :
          :  # atomic orbitals                 283          :
          :  # shells                          171          :
          :  # electrons                       310          :
          :  max. iterations                   250          :
          :  Hamiltonian                  GFN2-xTB          :
          :  restarted?                      false          :
          :  GBSA solvation                  false          :
          :  PC potential                    false          :
          :  electronic temp.          300.0000000     K    :
          :  accuracy                    1.0000000          :
          :  -> integral cutoff          0.2500000E+02      :
          :  -> integral neglect         0.1000000E-07      :
          :  -> SCF convergence          0.1000000E-05 Eh   :
          :  -> wf. convergence          0.1000000E-03 e    :
          :  Broyden damping             0.4000000          :
          :  net charge                          0          :
          :  unpaired electrons                  0          :
          ...................................................

 iter      E             dE          RMSdq      gap      omega  full diag
   1   -175.2864453 -0.175286E+03  0.385E+00    2.79       0.0  T
   2   -175.6726623 -0.386217E+00  0.214E+00    2.36       1.0  T
   3   -175.6888382 -0.161758E-01  0.110E+00    2.71       1.0  T
   4   -175.6921974 -0.335927E-02  0.199E-01    2.81       1.0  T
   5   -175.6950638 -0.286638E-02  0.931E-02    2.79       1.0  T
   6   -175.6954253 -0.361451E-03  0.440E-02    2.78       1.0  T
   7   -175.6954878 -0.624986E-04  0.217E-02    2.78       1.0  T
   8   -175.6955055 -0.177082E-04  0.738E-03    2.77       1.3  T
   9   -175.6955076 -0.209628E-05  0.335E-03    2.77       2.8  T
  10   -175.6955078 -0.277499E-06  0.143E-03    2.77       6.5  T
  11   -175.6955079 -0.410035E-07  0.616E-04    2.77      15.1  T
  12   -175.6955079 -0.142428E-07  0.180E-04    2.77      51.7  T

   *** convergence criteria satisfied after 12 iterations ***

         #    Occupation            Energy/Eh            Energy/eV
      -------------------------------------------------------------
         1        2.0000           -0.7228265             -19.6691
       ...           ...                  ...                  ...
       149        2.0000           -0.3813080             -10.3759
       150        2.0000           -0.3795999             -10.3294
       151        2.0000           -0.3647946              -9.9266
       152        2.0000           -0.3635830              -9.8936
       153        2.0000           -0.3629285              -9.8758
       154        2.0000           -0.3567166              -9.7068
       155        2.0000           -0.3542974              -9.6409 (HOMO)
       156                         -0.2523219              -6.8660 (LUMO)
       157                         -0.2444390              -6.6515
       158                         -0.2397671              -6.5244
       159                         -0.2389199              -6.5013
       160                         -0.2317317              -6.3057
       ...                                ...                  ...
       283                          0.6834660              18.5981
      -------------------------------------------------------------
                  HL-Gap            0.1019756 Eh            2.7749 eV
             Fermi-level           -0.3033097 Eh           -8.2535 eV

 SCC (total)                   0 d,  0 h,  0 min, 18.980 sec
 SCC setup                      ...        0 min,  0.044 sec (  0.233%)
 Dispersion                     ...        0 min,  0.207 sec (  1.091%)
 classical contributions        ...        0 min,  0.009 sec (  0.046%)
 integral evaluation            ...        0 min,  0.321 sec (  1.693%)
 iterations                     ...        0 min, 17.380 sec ( 91.567%)
 molecular gradient             ...        0 min,  0.999 sec (  5.261%)
 printout                       ...        0 min,  0.020 sec (  0.108%)

         :::::::::::::::::::::::::::::::::::::::::::::::::::::
         ::                     SUMMARY                     ::
         :::::::::::::::::::::::::::::::::::::::::::::::::::::
         :: total energy            -173.535837883503 Eh    ::
         :: gradient norm              0.332052445154 Eh/a0 ::
         :: HOMO-LUMO gap              2.774896112544 eV    ::
         ::.................................................::
         :: SCC energy              -175.688820384059 Eh    ::
         :: -> isotropic ES            0.346608833092 Eh    ::
         :: -> anisotropic ES          0.014098697251 Eh    ::
         :: -> anisotropic XC          0.074262360640 Eh    ::
         :: -> dispersion             -0.132822038547 Eh    ::
         :: repulsion energy           2.152982500556 Eh    ::
         :: add. restraining           0.000000000000 Eh    ::
         :: total charge              -0.000000000000 e     ::
         :::::::::::::::::::::::::::::::::::::::::::::::::::::

           -------------------------------------------------
          |                Property Printout                |
           -------------------------------------------------

    * Orbital Energies and Occupations

         #    Occupation            Energy/Eh            Energy/eV
      -------------------------------------------------------------
         1        2.0000           -0.7228265             -19.6691
       ...           ...                  ...                  ...
       143        2.0000           -0.4029012             -10.9635
       144        2.0000           -0.3986289             -10.8472
       145        2.0000           -0.3964188             -10.7871
       146        2.0000           -0.3912489             -10.6464
       147        2.0000           -0.3898896             -10.6094
       148        2.0000           -0.3844019             -10.4601
       149        2.0000           -0.3813080             -10.3759
       150        2.0000           -0.3795999             -10.3294
       151        2.0000           -0.3647946              -9.9266
       152        2.0000           -0.3635830              -9.8936
       153        2.0000           -0.3629285              -9.8758
       154        2.0000           -0.3567166              -9.7068
       155        2.0000           -0.3542974              -9.6409 (HOMO)
       156                         -0.2523219              -6.8660 (LUMO)
       157                         -0.2444390              -6.6515
       158                         -0.2397671              -6.5244
       159                         -0.2389199              -6.5013
       160                         -0.2317317              -6.3057
       161                         -0.2146029              -5.8396
       162                         -0.2132782              -5.8036
       163                         -0.2085001              -5.6736
       164                         -0.1758606              -4.7854
       165                         -0.1694206              -4.6102
       166                         -0.1268457              -3.4516
       ...                                ...                  ...
       283                          0.6834660              18.5981
      -------------------------------------------------------------
                  HL-Gap            0.1019756 Eh            2.7749 eV
             Fermi-level           -0.3033097 Eh           -8.2535 eV

     #   Z          covCN         q      C6AA      α(0)
     1   7 N        2.693    -0.188    25.086     7.439
     2   6 C        3.796     0.014    20.343     6.422
     3   6 C        2.765     0.276    22.337     7.740
     4   8 O        0.862    -0.475    23.235     6.463
     5   7 N        2.693    -0.164    24.554     7.359
     6   6 C        3.793     0.018    20.279     6.413
     7   6 C        2.745     0.272    22.398     7.749
     8   6 C        3.785     0.012    20.389     6.432
     9   8 O        0.861    -0.425    22.177     6.314
    10   7 N        2.679    -0.184    24.991     7.425
    11   6 C        3.806    -0.075    21.937     6.668
    12   6 C        2.746     0.276    22.337     7.739
    13   6 C        2.959     0.015    27.677     8.629
    14   6 C        3.776     0.013    20.392     6.434
    15   8 O        0.858    -0.407    21.828     6.264
    16   6 C        2.913    -0.050    29.249     8.868
    17   6 C        2.917    -0.048    29.183     8.859
    18   7 N        2.682    -0.176    24.819     7.399
    19   6 C        3.791    -0.072    21.879     6.661
    20   6 C        2.949    -0.033    28.829     8.806
    21   6 C        2.941    -0.026    28.654     8.779
    22   6 C        2.803     0.258    22.652     7.797
    23   6 C        3.803    -0.066    21.765     6.642
    24   6 C        2.895    -0.023    28.576     8.765
    25   6 C        3.772     0.037    19.988     6.371
    26   8 O        0.858    -0.415    21.982     6.286
    27   6 C        3.745     0.002    20.615     6.477
    28   7 N        2.763    -0.216    25.695     7.529
    29   6 C        3.811    -0.066    21.751     6.638
    30   7 N        2.705    -0.253    26.573     7.656
    31   6 C        2.740     0.283    22.200     7.714
    32   6 C        3.807    -0.066    21.768     6.642
    33   6 C        2.733     0.230    23.172     7.881
    34   6 C        3.829     0.009    20.409     6.428
    35   8 O        0.857    -0.429    22.277     6.328
    36   6 C        3.749     0.017    20.356     6.435
    37   7 N        1.777    -0.418    31.830     8.355
    38   7 N        2.657    -0.307    27.895     7.844
    39   7 N        2.738    -0.072    22.632     7.066
    40   6 C        3.802    -0.060    21.654     6.625
    41   7 N        2.701    -0.213    25.648     7.522
    42   6 C        3.738    -0.003    20.712     6.494
    43   6 C        2.766     0.261    22.596     7.785
    44   6 C        3.813    -0.058    21.598     6.615
    45   6 C        2.741     0.234    23.090     7.868
    46   8 O        0.857    -0.472    23.179     6.455
    47   7 N        1.787    -0.441    32.539     8.449
    48   7 N        2.647    -0.326    28.389     7.913
    49   6 C        3.725     0.119    18.742     6.182
    50   8 O        1.655    -0.427    21.372     6.241
    51   6 C        3.751    -0.118    22.830     6.814
    52   6 C        3.792    -0.059    21.641     6.625
    53   6 C        3.797    -0.059    21.644     6.624
    54   6 C        3.799    -0.072    21.882     6.660
    55   6 C        3.720     0.014    20.457     6.460
    56   7 N        2.625    -0.357    29.195     8.025
    57   1 H        0.860     0.182     1.205     1.720
    58   1 H        0.925     0.078     1.997     2.210
    59   1 H        0.862     0.198     1.117     1.655
    60   1 H        0.925     0.078     2.001     2.212
    61   1 H        0.917     0.074     2.047     2.238
    62   1 H        0.858     0.182     1.201     1.717
    63   1 H        0.926     0.036     2.501     2.473
    64   1 H        0.927     0.062     2.179     2.308
    65   1 H        0.927     0.100     1.787     2.090
    66   1 H        0.928     0.037     2.488     2.466
    67   1 H        0.926     0.038     2.469     2.457
    68   1 H        0.860     0.176     1.238     1.743
    69   1 H        0.929     0.057     2.234     2.337
    70   1 H        0.912     0.023     2.685     2.563
    71   1 H        0.927     0.038     2.469     2.457
    72   1 H        0.928     0.035     2.515     2.480
    73   1 H        0.928     0.057     2.233     2.336
    74   1 H        0.926     0.056     2.247     2.344
    75   1 H        0.925     0.044     2.396     2.421
    76   1 H        0.909     0.041     2.443     2.445
    77   1 H        0.925     0.057     2.232     2.336
    78   1 H        0.928     0.055     2.255     2.348
    79   1 H        0.862     0.236     0.939     1.518
    80   1 H        0.920     0.020     2.738     2.588
    81   1 H        0.926     0.097     1.816     2.107
    82   1 H        0.860     0.152     1.389     1.846
    83   1 H        0.927     0.072     2.058     2.243
    84   1 H        0.924     0.051     2.305     2.374
    85   1 H        0.911     0.048     2.347     2.397
    86   1 H        0.921     0.027     2.634     2.538
    87   1 H        0.927     0.038     2.471     2.458
    88   1 H        0.861     0.140     1.472     1.900
    89   1 H        0.861     0.171     1.268     1.764
    90   1 H        0.861     0.176     1.239     1.744
    91   1 H        0.916     0.038     2.478     2.462
    92   1 H        0.924     0.045     2.387     2.416
    93   1 H        0.861     0.167     1.291     1.779
    94   1 H        0.923     0.075     2.037     2.232
    95   1 H        0.920     0.053     2.289     2.366
    96   1 H        0.926     0.068     2.105     2.269
    97   1 H        0.909     0.056     2.253     2.348
    98   1 H        0.861     0.126     1.573     1.965
    99   1 H        0.861     0.160     1.333     1.809
   100   1 H        0.860     0.167     1.291     1.780
   101   1 H        0.922     0.025     2.664     2.553
   102   1 H        0.800     0.317     0.672     1.288
   103   1 H        0.926     0.077     2.008     2.216
   104   1 H        0.928     0.049     2.332     2.388
   105   1 H        0.920     0.015     2.804     2.619
   106   1 H        0.919     0.054     2.275     2.359
   107   1 H        0.911     0.056     2.245     2.344
   108   1 H        0.923     0.041     2.435     2.440
   109   1 H        0.920     0.036     2.505     2.475
   110   1 H        0.927     0.042     2.423     2.434
   111   1 H        0.920     0.033     2.549     2.497
   112   1 H        0.926     0.041     2.436     2.441
   113   1 H        0.919     0.011     2.876     2.653
   114   1 H        0.860     0.137     1.493     1.914
   115   1 H        0.861     0.141     1.461     1.893

 Mol. C6AA /au·bohr⁶  :     125536.162699
 Mol. C8AA /au·bohr⁸  :    2796017.248471
 Mol. α(0) /au        :        533.847492


Wiberg/Mayer (AO) data.
largest (>0.10) Wiberg bond orders for each atom

 ---------------------------------------------------------------------------
     #   Z sym  total        # sym  WBO       # sym  WBO       # sym  WBO
 ---------------------------------------------------------------------------
     1   7 N    3.442 --     7 C    1.262     2 C    0.982    57 H    0.916
                             9 O    0.194
     2   6 C    3.963 --     1 N    0.982     3 C    0.964    49 C    0.938
                            58 H    0.938
     3   6 C    3.962 --     4 O    1.606     5 N    1.318     2 C    0.964
     4   8 O    1.942 --     3 C    1.606     5 N    0.189
     5   7 N    3.461 --     3 C    1.318     6 C    0.948    59 H    0.920
                             4 O    0.189
     6   6 C    3.952 --    52 C    0.980    60 H    0.959     5 N    0.948
                            43 C    0.927
     7   6 C    3.953 --     9 O    1.694     1 N    1.262     8 C    0.911
     8   6 C    3.961 --    10 N    1.003    11 C    0.956    61 H    0.933
                             7 C    0.911
     9   8 O    2.027 --     7 C    1.694     1 N    0.194
    10   7 N    3.376 --    12 C    1.197     8 C    1.003    62 H    0.921
                            15 O    0.176
    11   6 C    3.984 --    13 C    1.005    63 H    0.968    64 H    0.966
                             8 C    0.956
    12   6 C    3.942 --    15 O    1.735    10 N    1.197    14 C    0.931
    13   6 C    3.985 --    17 C    1.504    16 C    1.347    11 C    1.005
    14   6 C    3.950 --    19 C    0.972    18 N    0.967    65 H    0.943
                            12 C    0.931
    15   8 O    2.034 --    12 C    1.735    10 N    0.176
    16   6 C    3.990 --    20 C    1.497    13 C    1.347    66 H    0.972
                            21 C    0.117
    17   6 C    3.989 --    13 C    1.504    21 C    1.323    67 H    0.966
                            20 C    0.124
    18   7 N    3.453 --    22 C    1.287    14 C    0.967    68 H    0.927
                            26 O    0.187
    19   6 C    3.981 --    23 C    0.999    69 H    0.975    14 C    0.972
                            70 H    0.972
    20   6 C    3.990 --    16 C    1.497    24 C    1.359    71 H    0.974
                            17 C    0.124
    21   6 C    3.992 --    24 C    1.547    17 C    1.323    72 H    0.972
                            16 C    0.117
    22   6 C    3.938 --    26 O    1.673    18 N    1.287    25 C    0.891
    23   6 C    3.992 --    19 C    0.999    27 C    0.998    73 H    0.978
                            74 H    0.975
    24   6 C    3.990 --    21 C    1.547    20 C    1.359    75 H    0.966
    25   6 C    3.972 --    29 C    1.007    28 N    1.005    76 H    0.927
                            22 C    0.891
    26   8 O    2.072 --    22 C    1.673    18 N    0.187
    27   6 C    3.980 --    23 C    0.998    30 N    0.990    78 H    0.972
                            77 H    0.965
    28   7 N    3.403 --    31 C    1.263    25 C    1.005    79 H    0.839
                            35 O    0.184
    29   6 C    3.988 --    25 C    1.007    32 C    0.993    81 H    0.960
                            80 H    0.958
    30   7 N    3.283 --    33 C    1.105    27 C    0.990    82 H    0.947
                            37 N    0.149
    31   6 C    3.954 --    35 O    1.690    28 N    1.263    34 C    0.908
    32   6 C    3.991 --    36 C    1.012    29 C    0.993    84 H    0.976
                            83 H    0.971
    33   6 C    3.956 --    37 N    1.689    38 N    1.135    30 N    1.105
    34   6 C    3.958 --    40 C    0.986    39 N    0.970    85 H    0.938
                            31 C    0.908
    35   8 O    2.014 --    31 C    1.690    28 N    0.184
    36   6 C    3.976 --    32 C    1.012    41 N    0.988    87 H    0.966
                            86 H    0.958
    37   7 N    2.937 --    33 C    1.689    88 H    0.942    30 N    0.149
                            38 N    0.109
    38   7 N    3.224 --    33 C    1.135    89 H    0.952    90 H    0.948
                            37 N    0.109
    39   7 N    3.538 --    43 C    1.328    34 C    0.970    42 C    0.962
                            46 O    0.200
    40   6 C    3.988 --    44 C    1.005    34 C    0.986    92 H    0.975
                            91 H    0.973
    41   7 N    3.356 --    45 C    1.175    36 C    0.988    93 H    0.941
                            47 N    0.170
    42   6 C    3.958 --    44 C    1.001    95 H    0.967    94 H    0.967
                            39 N    0.962
    43   6 C    3.955 --    46 O    1.604    39 N    1.328     6 C    0.927
    44   6 C    3.989 --    40 C    1.005    42 C    1.001    96 H    0.976
                            97 H    0.972
    45   6 C    3.962 --    47 N    1.681    41 N    1.175    48 N    1.083
    46   8 O    1.967 --    43 C    1.604    39 N    0.200
    47   7 N    2.929 --    45 C    1.681    98 H    0.944    41 N    0.170
    48   7 N    3.136 --    45 C    1.083   100 H    0.957    99 H    0.949
    49   6 C    3.962 --    50 O    1.028    51 C    0.992   101 H    0.956
                             2 C    0.938
    50   8 O    1.980 --    49 C    1.028   102 H    0.863
    51   6 C    3.991 --    49 C    0.992   104 H    0.986   105 H    0.981
                           103 H    0.979
    52   6 C    3.987 --    53 C    1.024     6 C    0.980   106 H    0.965
                           107 H    0.962
    53   6 C    3.995 --    52 C    1.024    54 C    0.998   108 H    0.973
                           109 H    0.971
    54   6 C    3.994 --    55 C    1.004    53 C    0.998   110 H    0.976
                           111 H    0.973
    55   6 C    3.985 --    56 N    1.007    54 C    1.004   112 H    0.981
                           113 H    0.979
    56   7 N    2.983 --    55 C    1.007   114 H    0.973   115 H    0.970
    57   1 H    0.967 --     1 N    0.916
    58   1 H    0.994 --     2 C    0.938
    59   1 H    0.961 --     5 N    0.920
    60   1 H    0.994 --     6 C    0.959
    61   1 H    0.994 --     8 C    0.933
    62   1 H    0.967 --    10 N    0.921
    63   1 H    0.998 --    11 C    0.968
    64   1 H    0.996 --    11 C    0.966
    65   1 H    0.990 --    14 C    0.943
    66   1 H    0.999 --    16 C    0.972
    67   1 H    0.999 --    17 C    0.966
    68   1 H    0.969 --    18 N    0.927
    69   1 H    0.996 --    19 C    0.975
    70   1 H    0.999 --    19 C    0.972
    71   1 H    0.998 --    20 C    0.974
    72   1 H    0.999 --    21 C    0.972
    73   1 H    0.997 --    23 C    0.978
    74   1 H    0.996 --    23 C    0.975
    75   1 H    0.997 --    24 C    0.966
    76   1 H    0.997 --    25 C    0.927
    77   1 H    0.997 --    27 C    0.965
    78   1 H    0.997 --    27 C    0.972
    79   1 H    0.944 --    28 N    0.839
    80   1 H    0.999 --    29 C    0.958
    81   1 H    0.990 --    29 C    0.960
    82   1 H    0.977 --    30 N    0.947
    83   1 H    0.995 --    32 C    0.971
    84   1 H    0.997 --    32 C    0.976
    85   1 H    0.997 --    34 C    0.938
    86   1 H    0.999 --    36 C    0.958
    87   1 H    0.999 --    36 C    0.966
    88   1 H    0.980 --    37 N    0.942
    89   1 H    0.971 --    38 N    0.952
    90   1 H    0.969 --    38 N    0.948
    91   1 H    0.999 --    40 C    0.973
    92   1 H    0.997 --    40 C    0.975
    93   1 H    0.972 --    41 N    0.941
    94   1 H    0.994 --    42 C    0.967
    95   1 H    0.997 --    42 C    0.967
    96   1 H    0.994 --    44 C    0.976
    97   1 H    0.997 --    44 C    0.972
    98   1 H    0.984 --    47 N    0.944
    99   1 H    0.974 --    48 N    0.949
   100   1 H    0.972 --    48 N    0.957
   101   1 H    0.999 --    49 C    0.956
   102   1 H    0.899 --    50 O    0.863
   103   1 H    0.994 --    51 C    0.979
   104   1 H    0.998 --    51 C    0.986
   105   1 H    1.000 --    51 C    0.981
   106   1 H    0.996 --    52 C    0.965
   107   1 H    0.996 --    52 C    0.962
   108   1 H    0.998 --    53 C    0.973
   109   1 H    0.998 --    53 C    0.971
   110   1 H    0.998 --    54 C    0.976
   111   1 H    0.999 --    54 C    0.973
   112   1 H    0.998 --    55 C    0.981
   113   1 H    1.000 --    55 C    0.979
   114   1 H    0.981 --    56 N    0.973
   115   1 H    0.980 --    56 N    0.970
 ---------------------------------------------------------------------------

Topologies differ in total number of bonds
Writing topology from bond orders to xtbtopo.mol

molecular dipole:
                 x           y           z       tot (Debye)
 q only:        1.132      -0.750      -0.959
   full:        1.694      -0.778      -1.158       5.577
molecular quadrupole (traceless):
                xx          xy          yy          xz          yz          zz
 q only:      -41.145      20.561      32.004      -3.446      13.261       9.141
  q+dip:      -64.810      23.695      47.342     -17.541       9.442      17.468
   full:      -66.074      24.548      47.323     -16.424      11.422      18.751


           -------------------------------------------------
          | TOTAL ENERGY             -173.535837883503 Eh   |
          | GRADIENT NORM               0.332052445154 Eh/α |
          | HOMO-LUMO GAP               2.774896112544 eV   |
           -------------------------------------------------

------------------------------------------------------------------------
 * finished run on 2026/05/23 at 12:30:11.936     
------------------------------------------------------------------------
 total:
 * wall-time:     0 d,  0 h,  0 min, 19.950 sec
 *  cpu-time:     0 d,  0 h,  0 min, 25.609 sec
 * ratio c/w:     1.284 speedup
 SCF:
 * wall-time:     0 d,  0 h,  0 min, 19.017 sec
 *  cpu-time:     0 d,  0 h,  0 min, 24.514 sec
 * ratio c/w:     1.289 speedup

normal termination of xtb
