      -----------------------------------------------------------      
     |                   =====================                   |     
     |                           x T B                           |     
     |                   =====================                   |     
     |                         S. Grimme                         |     
     |          Mulliken Center for Theoretical Chemistry        |     
     |                    University of Bonn                     |     
      -----------------------------------------------------------      

   * xtb version 6.7.1 (edcfbbe) compiled by 'albert@albert-system' on 2024-07-22

   xtb is free software: you can redistribute it and/or modify it under
   the terms of the GNU Lesser General Public License as published by
   the Free Software Foundation, either version 3 of the License, or
   (at your option) any later version.
   
   xtb is distributed in the hope that it will be useful,
   but WITHOUT ANY WARRANTY; without even the implied warranty of
   MERCHANTABILITY or FITNESS FOR A PARTICULAR PURPOSE.  See the
   GNU Lesser General Public License for more details.
   
   Cite this work as:
   * C. Bannwarth, E. Caldeweyher, S. Ehlert, A. Hansen, P. Pracht,
     J. Seibert, S. Spicher, S. Grimme, WIREs Comput. Mol. Sci., 2020, 11,
     e01493. DOI: 10.1002/wcms.1493
   
   for GFN2-xTB:
   * C. Bannwarth, S. Ehlert and S. Grimme., J. Chem. Theory Comput., 2019,
     15, 1652-1671. DOI: 10.1021/acs.jctc.8b01176
   for GFN1-xTB:
   * S. Grimme, C. Bannwarth, P. Shushkov, J. Chem. Theory Comput., 2017,
     13, 1989-2009. DOI: 10.1021/acs.jctc.7b00118
   for GFN0-xTB:
   * P. Pracht, E. Caldeweyher, S. Ehlert, S. Grimme, ChemRxiv, 2019, preprint.
     DOI: 10.26434/chemrxiv.8326202.v1
   for GFN-FF:
   * S. Spicher and S. Grimme, Angew. Chem. Int. Ed., 2020, 59, 15665-15673.
     DOI: 10.1002/anie.202004239
   
   for ALPB and GBSA implicit solvation:
   * S. Ehlert, M. Stahn, S. Spicher, S. Grimme, J. Chem. Theory Comput.,
     2021, 17, 4250-4261. DOI: 10.1021/acs.jctc.1c00471
   
   for ddCOSMO and CPCM-X implicit solvation:
   * M. Stahn, S. Ehlert, S. Grimme, J. Phys. Chem. A,
     2023, XX, XXXX-XXXX. DOI: 10.1021/acs.jpca.3c04382
   
   for DFT-D4:
   * E. Caldeweyher, C. Bannwarth and S. Grimme, J. Chem. Phys., 2017,
     147, 034112. DOI: 10.1063/1.4993215
   * E. Caldeweyher, S. Ehlert, A. Hansen, H. Neugebauer, S. Spicher,
     C. Bannwarth and S. Grimme, J. Chem. Phys., 2019, 150, 154122.
     DOI: 10.1063/1.5090222
   * E. Caldeweyher, J.-M. Mewes, S. Ehlert and S. Grimme, Phys. Chem. Chem. Phys.
     2020, 22, 8499-8512. DOI: 10.1039/D0CP00502A
   
   for sTDA-xTB:
   * S. Grimme and C. Bannwarth, J. Chem. Phys., 2016, 145, 054103.
     DOI: 10.1063/1.4959605
   
   in the mass-spec context:
   * V. Asgeirsson, C. Bauer and S. Grimme, Chem. Sci., 2017, 8, 4879.
     DOI: 10.1039/c7sc00601b
   * J. Koopman and S. Grimme, ACS Omega 2019, 4, 12, 15120-15133.
     DOI: 10.1021/acsomega.9b02011
   
   for metadynamics refer to:
   * S. Grimme, J. Chem. Theory Comput., 2019, 155, 2847-2862
     DOI: 10.1021/acs.jctc.9b00143
   
   for SPH calculations refer to:
   * S. Spicher and S. Grimme, J. Chem. Theory Comput., 2021, 17, 1701-1714
     DOI: 10.1021/acs.jctc.0c01306
   
   for ONIOM refer to:
   * C. Plett, A. Katbashev, S. Ehlert, S. Grimme, M. Bursch,
     Phys. Chem. Chem. Phys., 2023, 25, 17860-17868. DOI: 10.1039/D3CP02178E
   
   for DIPRO refer to:
   * J. Kohn, N. Gildemeister, S. Grimme, D. Fazzi, A. Hansen,
     J. Chem. Phys., 2023, just accepted.
   
   for PTB refer to:
   * S. Grimme, M. Mueller, A. Hansen, J. Chem. Phys., 2023, 158, 124111.
     DOI: 10.1063/5.0137838
   
   with help from (in alphabetical order)
   P. Atkinson, C. Bannwarth, F. Bohle, G. Brandenburg, E. Caldeweyher
   M. Checinski, S. Dohm, S. Ehlert, S. Ehrlich, I. Gerasimov, C. Hölzer
   A. Katbashev, J. Kohn, J. Koopman, C. Lavigne, S. Lehtola, F. März, M. Müller,
   F. Musil, H. Neugebauer, J. Pisarek, C. Plett, P. Pracht, F. Pultar,
   J. Seibert, P. Shushkov, S. Spicher, M. Stahn, M. Steiner, T. Strunk,
   J. Stückrath, T. Rose, and J. Unsleber
   
 * started run on 2026/05/23 at 12:40:44.746     
   ID    Z sym.   atoms
    1    7 N      1, 5, 10, 17, 27, 34, 39, 43, 54, 56, 57
    2    6 C      2, 3, 6-8, 11-14, 16, 18, 21-23, 28-31, 33, 35-38, 40,
                  44-48, 50-53, 55, 58
    3    8 O      4, 9, 15, 19, 20, 24-26, 32, 41, 49
    4   16 S      42
    5    1 H      59-117

           -------------------------------------------------
          |                Calculation Setup                |
           -------------------------------------------------

          program call               : /home/xchen/software/xtb-6.7.1/xtb-dist/bin/xtb /home/xchen/Test/benchmark/md_sampled/04_7_0231_n2/snap_0064.xyz --charge -2 --gfn 2 --norestart
          coordinate file            : /home/xchen/Test/benchmark/md_sampled/04_7_0231_n2/snap_0064.xyz
          omp threads                :                    48


           -------------------------------------------------
          |                 G F N 2 - x T B                 |
           -------------------------------------------------

        Reference                      10.1021/acs.jctc.8b01176
      * Hamiltonian:
        H0-scaling (s, p, d)           1.850000    2.230000    2.230000
        zeta-weighting                 0.500000
      * Dispersion:
        s8                             2.700000
        a1                             0.520000
        a2                             5.000000
        s9                             5.000000
      * Repulsion:
        kExp                           1.500000    1.000000
        rExp                           1.000000
      * Coulomb:
        alpha                          2.000000
        third order                    shell-resolved
        anisotropic                    true
        a3                             3.000000
        a5                             4.000000
        cn-shift                       1.200000
        cn-exp                         4.000000
        max-rad                        5.000000


          ...................................................
          :                      SETUP                      :
          :.................................................:
          :  # basis functions                 297          :
          :  # atomic orbitals                 296          :
          :  # shells                          176          :
          :  # electrons                       328          :
          :  max. iterations                   250          :
          :  Hamiltonian                  GFN2-xTB          :
          :  restarted?                      false          :
          :  GBSA solvation                  false          :
          :  PC potential                    false          :
          :  electronic temp.          300.0000000     K    :
          :  accuracy                    1.0000000          :
          :  -> integral cutoff          0.2500000E+02      :
          :  -> integral neglect         0.1000000E-07      :
          :  -> SCF convergence          0.1000000E-05 Eh   :
          :  -> wf. convergence          0.1000000E-03 e    :
          :  Broyden damping             0.4000000          :
          :  net charge                         -2          :
          :  unpaired electrons                  0          :
          ...................................................

 iter      E             dE          RMSdq      gap      omega  full diag
   1   -186.9561164 -0.186956E+03  0.416E+00    3.61       0.0  T
   2   -187.4668366 -0.510720E+00  0.216E+00    1.84       1.0  T
   3   -187.4943266 -0.274900E-01  0.118E+00    0.69       1.0  T
   4   -186.3559011  0.113843E+01  0.219E+00    0.53       1.0  T
   5   -187.5036574 -0.114776E+01  0.231E-01    0.23       1.0  T
   6   -187.5061286 -0.247120E-02  0.110E-01    0.17       1.0  T
   7   -187.5051393  0.989296E-03  0.852E-02    0.28       1.0  T
   8   -187.5052861 -0.146854E-03  0.712E-02    0.28       1.0  T
   9   -187.5056541 -0.367942E-03  0.562E-02    0.24       1.0  T
  10   -187.5060835 -0.429458E-03  0.354E-02    0.21       1.0  T
  11   -187.5063176 -0.234014E-03  0.165E-02    0.19       1.0  T
  12   -187.5063811 -0.635187E-04  0.212E-03    0.18       4.4  T
  13   -187.5063813 -0.271266E-06  0.157E-03    0.18       5.9  T
  14   -187.5063819 -0.570537E-06  0.133E-04    0.18      69.6  T
  15   -187.5063819  0.253033E-08  0.148E-04    0.18      62.6  T

   *** convergence criteria satisfied after 15 iterations ***

         #    Occupation            Energy/Eh            Energy/eV
      -------------------------------------------------------------
         1        2.0000           -0.5898636             -16.0510
       ...           ...                  ...                  ...
       158        2.0000           -0.2033242              -5.5327
       159        2.0000           -0.2014776              -5.4825
       160        2.0000           -0.2006100              -5.4589
       161        2.0000           -0.1971066              -5.3635
       162        2.0000           -0.1575122              -4.2861
       163        2.0000           -0.1456715              -3.9639
       164        1.9358           -0.1235604              -3.3622 (HOMO)
       165        0.0642           -0.1170880              -3.1861 (LUMO)
       166                         -0.0959602              -2.6112
       167                         -0.0889183              -2.4196
       168                         -0.0755472              -2.0557
       169                         -0.0720831              -1.9615
       ...                                ...                  ...
       296                          0.8515427              23.1717
      -------------------------------------------------------------
                  HL-Gap            0.0064724 Eh            0.1761 eV
             Fermi-level           -0.1203242 Eh           -3.2742 eV

 SCC (total)                   0 d,  0 h,  0 min, 28.413 sec
 SCC setup                      ...        0 min,  0.031 sec (  0.110%)
 Dispersion                     ...        0 min,  0.128 sec (  0.450%)
 classical contributions        ...        0 min,  0.006 sec (  0.022%)
 integral evaluation            ...        0 min,  0.405 sec (  1.426%)
 iterations                     ...        0 min, 26.931 sec ( 94.785%)
 molecular gradient             ...        0 min,  0.896 sec (  3.154%)
 printout                       ...        0 min,  0.015 sec (  0.052%)

         :::::::::::::::::::::::::::::::::::::::::::::::::::::
         ::                     SUMMARY                     ::
         :::::::::::::::::::::::::::::::::::::::::::::::::::::
         :: total energy            -185.522478093231 Eh    ::
         :: gradient norm              0.372126677877 Eh/a0 ::
         :: HOMO-LUMO gap              0.176121853560 eV    ::
         ::.................................................::
         :: SCC energy              -187.500016324761 Eh    ::
         :: -> isotropic ES            0.715548064433 Eh    ::
         :: -> anisotropic ES          0.015653142256 Eh    ::
         :: -> anisotropic XC          0.062719951221 Eh    ::
         :: -> dispersion             -0.138981228643 Eh    ::
         :: repulsion energy           1.977538231530 Eh    ::
         :: add. restraining           0.000000000000 Eh    ::
         :: total charge              -2.000000000010 e     ::
         :::::::::::::::::::::::::::::::::::::::::::::::::::::

           -------------------------------------------------
          |                Property Printout                |
           -------------------------------------------------

    * Orbital Energies and Occupations

         #    Occupation            Energy/Eh            Energy/eV
      -------------------------------------------------------------
         1        2.0000           -0.5898636             -16.0510
       ...           ...                  ...                  ...
       152        2.0000           -0.2337244              -6.3600
       153        2.0000           -0.2319854              -6.3126
       154        2.0000           -0.2306568              -6.2765
       155        2.0000           -0.2249212              -6.1204
       156        2.0000           -0.2126867              -5.7875
       157        2.0000           -0.2096136              -5.7039
       158        2.0000           -0.2033242              -5.5327
       159        2.0000           -0.2014776              -5.4825
       160        2.0000           -0.2006100              -5.4589
       161        2.0000           -0.1971066              -5.3635
       162        2.0000           -0.1575122              -4.2861
       163        2.0000           -0.1456715              -3.9639
       164        1.9358           -0.1235604              -3.3622 (HOMO)
       165        0.0642           -0.1170880              -3.1861 (LUMO)
       166                         -0.0959602              -2.6112
       167                         -0.0889183              -2.4196
       168                         -0.0755472              -2.0557
       169                         -0.0720831              -1.9615
       170                         -0.0692155              -1.8834
       171                         -0.0619953              -1.6870
       172                         -0.0462802              -1.2593
       173                         -0.0282342              -0.7683
       174                         -0.0137152              -0.3732
       175                         -0.0131515              -0.3579
       ...                                ...                  ...
       296                          0.8515427              23.1717
      -------------------------------------------------------------
                  HL-Gap            0.0064724 Eh            0.1761 eV
             Fermi-level           -0.1203242 Eh           -3.2742 eV

     #   Z          covCN         q      C6AA      α(0)
     1   7 N        2.688    -0.238    26.219     7.605
     2   6 C        3.802     0.036    19.973     6.363
     3   6 C        2.771     0.276    22.340     7.741
     4   8 O        0.859    -0.454    22.799     6.402
     5   7 N        2.694    -0.157    24.400     7.336
     6   6 C        3.770     0.036    19.994     6.372
     7   6 C        2.780     0.292    22.057     7.692
     8   6 C        3.804     0.028    20.095     6.382
     9   8 O        0.857    -0.384    21.365     6.197
    10   7 N        2.722    -0.160    24.458     7.345
    11   6 C        3.793    -0.059    21.645     6.625
    12   6 C        2.769     0.264    22.545     7.776
    13   6 C        3.735    -0.085    22.216     6.727
    14   6 C        3.811     0.039    19.906     6.351
    15   8 O        0.859    -0.508    23.966     6.564
    16   6 C        2.684     0.359    20.916     7.484
    17   7 N        2.602    -0.320    28.245     7.893
    18   6 C        3.805    -0.088    22.177     6.704
    19   8 O        0.856    -0.584    25.721     6.800
    20   8 O        0.857    -0.597    26.054     6.844
    21   6 C        2.748     0.264    22.548     7.775
    22   6 C        2.684     0.352    21.021     7.503
    23   6 C        3.790     0.014    20.345     6.424
    24   8 O        0.856    -0.523    24.301     6.609
    25   8 O        0.857    -0.496    23.695     6.526
    26   8 O        1.142    -0.520    24.053     6.584
    27   7 N        2.681    -0.172    24.728     7.385
    28   6 C        3.809    -0.061    21.671     6.627
    29   6 C        2.742     0.256    22.691     7.800
    30   6 C        3.805    -0.053    21.521     6.604
    31   6 C        3.798     0.003    20.529     6.451
    32   8 O        0.858    -0.440    22.498     6.359
    33   6 C        3.783    -0.060    21.677     6.632
    34   7 N        2.688    -0.183    24.961     7.420
    35   6 C        3.795    -0.063    21.708     6.635
    36   6 C        3.731     0.030    20.160     6.409
    37   6 C        2.764     0.277    22.311     7.735
    38   6 C        3.764    -0.013    20.857     6.510
    39   7 N        2.626    -0.333    28.570     7.938
    40   6 C        3.814     0.020    20.224     6.401
    41   8 O        0.859    -0.426    22.205     6.318
    42  16 S        1.937    -0.220   150.434    20.643
    43   7 N        2.692    -0.179    24.873     7.407
    44   6 C        3.804    -0.030    21.114     6.542
    45   6 C        3.750    -0.054    21.607     6.629
    46   6 C        2.784     0.246    22.871     7.833
    47   6 C        3.754    -0.119    22.833     6.814
    48   6 C        3.763    -0.054    21.579     6.622
    49   8 O        0.861    -0.453    22.760     6.396
    50   6 C        3.725    -0.090    22.326     6.747
    51   6 C        3.827    -0.073    21.872     6.655
    52   6 C        3.798    -0.060    21.652     6.625
    53   6 C        3.726     0.020    20.336     6.439
    54   7 N        2.687    -0.229    26.014     7.575
    55   6 C        2.731     0.225    23.262     7.896
    56   7 N        1.779    -0.434    32.304     8.417
    57   7 N        2.639    -0.315    28.101     7.873
    58   6 C        3.731    -0.105    22.601     6.786
    59   1 H        0.861     0.214     1.039     1.597
    60   1 H        0.928     0.041     2.435     2.440
    61   1 H        0.860     0.196     1.129     1.664
    62   1 H        0.910     0.048     2.343     2.394
    63   1 H        0.922     0.063     2.168     2.303
    64   1 H        0.858     0.196     1.128     1.664
    65   1 H        0.922     0.048     2.344     2.394
    66   1 H        0.926     0.037     2.492     2.469
    67   1 H        0.867     0.012     2.875     2.655
    68   1 H        0.929     0.029     2.607     2.525
    69   1 H        0.928     0.062     2.181     2.309
    70   1 H        1.070     0.295     0.719     1.324
    71   1 H        0.921     0.032     2.560     2.502
    72   1 H        0.918     0.037     2.491     2.468
    73   1 H        0.926     0.055     2.263     2.353
    74   1 H        0.857     0.192     1.151     1.680
    75   1 H        0.926     0.036     2.508     2.476
    76   1 H        0.926     0.072     2.062     2.246
    77   1 H        0.922     0.049     2.335     2.390
    78   1 H        0.924     0.032     2.565     2.504
    79   1 H        0.928     0.080     1.974     2.197
    80   1 H        0.912     0.059     2.213     2.327
    81   1 H        0.918     0.015     2.817     2.625
    82   1 H        0.861     0.179     1.221     1.731
    83   1 H        0.921     0.036     2.497     2.471
    84   1 H        0.927     0.072     2.063     2.246
    85   1 H        0.926     0.013     2.841     2.636
    86   1 H        0.926     0.010     2.882     2.655
    87   1 H        0.927     0.063     2.160     2.298
    88   1 H        0.906     0.031     2.583     2.514
    89   1 H        0.857     0.149     1.410     1.860
    90   1 H        0.858     0.116     1.656     2.016
    91   1 H        0.926     0.068     2.106     2.270
    92   1 H        0.862     0.174     1.247     1.749
    93   1 H        0.921     0.050     2.318     2.381
    94   1 H        0.923     0.056     2.242     2.342
    95   1 H        0.929     0.057     2.228     2.334
    96   1 H        0.929     0.057     2.238     2.339
    97   1 H        0.928     0.036     2.506     2.475
    98   1 H        0.928     0.037     2.493     2.469
    99   1 H        0.928     0.030     2.581     2.512
   100   1 H        0.921     0.037     2.488     2.467
   101   1 H        0.923     0.043     2.415     2.430
   102   1 H        0.916     0.019     2.755     2.596
   103   1 H        0.921     0.029     2.606     2.525
   104   1 H        0.912     0.040     2.447     2.447
   105   1 H        0.923     0.071     2.071     2.250
   106   1 H        0.925     0.053     2.282     2.362
   107   1 H        0.925     0.042     2.427     2.436
   108   1 H        0.920     0.043     2.413     2.429
   109   1 H        0.921     0.024     2.677     2.559
   110   1 H        0.924     0.018     2.767     2.601
   111   1 H        0.853     0.171     1.267     1.764
   112   1 H        0.861     0.132     1.531     1.938
   113   1 H        0.858     0.164     1.310     1.793
   114   1 H        0.858     0.177     1.232     1.739
   115   1 H        0.922     0.089     1.886     2.148
   116   1 H        0.924     0.023     2.683     2.561
   117   1 H        0.906     0.047     2.363     2.405

 Mol. C6AA /au·bohr⁶  :     136582.014536
 Mol. C8AA /au·bohr⁸  :    3094285.504087
 Mol. α(0) /au        :        552.006778


Wiberg/Mayer (AO) data.
largest (>0.10) Wiberg bond orders for each atom

 ---------------------------------------------------------------------------
     #   Z sym  total        # sym  WBO       # sym  WBO       # sym  WBO
 ---------------------------------------------------------------------------
     1   7 N    3.280 --     7 C    1.139     2 C    0.983    59 H    0.901
                             9 O    0.167
     2   6 C    3.982 --     1 N    0.983    51 C    0.977    60 H    0.960
                             3 C    0.941
     3   6 C    3.950 --     4 O    1.649     5 N    1.290     2 C    0.941
     4   8 O    1.964 --     3 C    1.649     5 N    0.195
     5   7 N    3.464 --     3 C    1.290     6 C    0.984    61 H    0.915
                             4 O    0.195
     6   6 C    3.974 --    58 C    0.990     5 N    0.984    46 C    0.959
                            62 H    0.930
     7   6 C    3.938 --     9 O    1.762     1 N    1.139     8 C    0.925
     8   6 C    3.956 --    11 C    0.979    10 N    0.973    63 H    0.955
                             7 C    0.925
     9   8 O    2.080 --     7 C    1.762     1 N    0.167
    10   7 N    3.489 --    12 C    1.300     8 C    0.973    64 H    0.911
                            15 O    0.187
    11   6 C    3.982 --    66 H    0.980    13 C    0.979     8 C    0.979
                            65 H    0.962
    12   6 C    3.952 --    15 O    1.584    10 N    1.300    14 C    0.973
    13   6 C    3.940 --    68 H    0.982    11 C    0.979    67 H    0.966
                            16 C    0.900
    14   6 C    3.983 --    18 C    0.984    12 C    0.973    17 N    0.966
                            69 H    0.949
    15   8 O    1.905 --    12 C    1.584    10 N    0.187
    16   6 C    3.941 --    19 O    1.525    20 O    1.500    13 C    0.900
    17   7 N    3.286 --    21 C    1.395    14 C    0.966    70 H    0.525
                            24 O    0.207
    18   6 C    3.986 --    14 C    0.984    72 H    0.970    71 H    0.955
                            22 C    0.936
    19   8 O    1.820 --    16 C    1.525    20 O    0.231
    20   8 O    1.797 --    16 C    1.500    19 O    0.231
    21   6 C    3.954 --    24 O    1.584    17 N    1.395    23 C    0.888
    22   6 C    3.940 --    25 O    1.653    26 O    1.316    18 C    0.936
    23   6 C    3.947 --    27 N    0.976    28 C    0.972    73 H    0.961
                            21 C    0.888
    24   8 O    1.936 --    21 C    1.584    17 N    0.207
    25   8 O    1.946 --    22 C    1.653    26 O    0.199
    26   8 O    2.056 --    22 C    1.316    70 H    0.358    25 O    0.199
    27   7 N    3.478 --    29 C    1.311    23 C    0.976    74 H    0.918
                            32 O    0.207
    28   6 C    3.989 --    30 C    1.007    23 C    0.972    75 H    0.969
                            76 H    0.960
    29   6 C    3.952 --    32 O    1.673    27 N    1.311    31 C    0.888
    30   6 C    3.993 --    33 C    1.013    28 C    1.007    78 H    0.973
                            77 H    0.959
    31   6 C    3.953 --    34 N    0.985    35 C    0.982    79 H    0.950
                            29 C    0.888
    32   8 O    2.010 --    29 C    1.673    27 N    0.207
    33   6 C    3.992 --    30 C    1.013    36 C    0.988    81 H    0.977
                            80 H    0.972
    34   7 N    3.441 --    37 C    1.250    31 C    0.985    82 H    0.931
                            41 O    0.191
    35   6 C    3.991 --    38 C    1.005    31 C    0.982    84 H    0.974
                            83 H    0.958
    36   6 C    3.986 --    39 N    1.028    33 C    0.988    86 H    0.980
                            85 H    0.973
    37   6 C    3.946 --    41 O    1.696    34 N    1.250    40 C    0.903
    38   6 C    3.975 --    35 C    1.005    42 S    0.992    88 H    0.975
                            87 H    0.971
    39   7 N    3.016 --    36 C    1.028    90 H    0.974    89 H    0.954
    40   6 C    3.962 --    43 N    1.003    44 C    0.975    91 H    0.949
                            37 C    0.903
    41   8 O    2.024 --    37 C    1.696    34 N    0.191
    42  16 S    2.074 --    45 C    1.009    38 C    0.992
    43   7 N    3.393 --    46 C    1.218    40 C    1.003    92 H    0.935
                            49 O    0.164
    44   6 C    3.981 --    47 C    1.001    40 C    0.975    93 H    0.972
                            48 C    0.972
    45   6 C    3.971 --    42 S    1.009    95 H    0.983    96 H    0.981
                            94 H    0.980
    46   6 C    3.885 --    49 O    1.634    43 N    1.218     6 C    0.959
    47   6 C    3.986 --    44 C    1.001    99 H    0.986    97 H    0.986
                            98 H    0.984
    48   6 C    3.991 --    50 C    1.030   100 H    0.975    44 C    0.972
                           101 H    0.971
    49   8 O    1.965 --    46 C    1.634    43 N    0.164
    50   6 C    3.991 --    48 C    1.030   102 H    0.985   103 H    0.983
                           104 H    0.969
    51   6 C    3.984 --    52 C    1.011     2 C    0.977   105 H    0.965
                           106 H    0.961
    52   6 C    3.992 --    51 C    1.011    53 C    0.991   108 H    0.976
                           107 H    0.975
    53   6 C    3.976 --    54 N    1.015    52 C    0.991   110 H    0.966
                           109 H    0.960
    54   7 N    3.337 --    55 C    1.129    53 C    1.015   111 H    0.928
                            56 N    0.173
    55   6 C    3.960 --    56 N    1.696    54 N    1.129    57 N    1.099
    56   7 N    2.953 --    55 C    1.696   112 H    0.945    54 N    0.173
    57   7 N    3.144 --    55 C    1.099   114 H    0.947   113 H    0.945
    58   6 C    3.978 --     6 C    0.990   116 H    0.982   117 H    0.979
                           115 H    0.972
    59   1 H    0.954 --     1 N    0.901
    60   1 H    0.998 --     2 C    0.960
    61   1 H    0.962 --     5 N    0.915
    62   1 H    0.994 --     6 C    0.930
    63   1 H    0.996 --     8 C    0.955
    64   1 H    0.962 --    10 N    0.911
    65   1 H    0.997 --    11 C    0.962
    66   1 H    0.998 --    11 C    0.980
    67   1 H    0.999 --    13 C    0.966
    68   1 H    0.998 --    13 C    0.982
    69   1 H    0.996 --    14 C    0.949
    70   1 H    0.913 --    17 N    0.525    26 O    0.358
    71   1 H    0.999 --    18 C    0.955
    72   1 H    0.998 --    18 C    0.970
    73   1 H    0.997 --    23 C    0.961
    74   1 H    0.963 --    27 N    0.918
    75   1 H    0.998 --    28 C    0.969
    76   1 H    0.995 --    28 C    0.960
    77   1 H    0.998 --    30 C    0.959
    78   1 H    0.999 --    30 C    0.973
    79   1 H    0.993 --    31 C    0.950
    80   1 H    0.996 --    33 C    0.972
    81   1 H    1.000 --    33 C    0.977
    82   1 H    0.968 --    34 N    0.931
    83   1 H    0.998 --    35 C    0.958
    84   1 H    0.995 --    35 C    0.974
    85   1 H    0.999 --    36 C    0.973
    86   1 H    1.000 --    36 C    0.980
    87   1 H    0.996 --    38 C    0.971
    88   1 H    0.999 --    38 C    0.975
    89   1 H    0.978 --    39 N    0.954
    90   1 H    0.986 --    39 N    0.974
    91   1 H    0.994 --    40 C    0.949
    92   1 H    0.969 --    43 N    0.935
    93   1 H    0.997 --    44 C    0.972
    94   1 H    0.997 --    45 C    0.980
    95   1 H    0.997 --    45 C    0.983
    96   1 H    0.997 --    45 C    0.981
    97   1 H    0.999 --    47 C    0.986
    98   1 H    0.998 --    47 C    0.984
    99   1 H    0.999 --    47 C    0.986
   100   1 H    0.998 --    48 C    0.975
   101   1 H    0.998 --    48 C    0.971
   102   1 H    1.000 --    50 C    0.985
   103   1 H    0.999 --    50 C    0.983
   104   1 H    0.998 --    50 C    0.969
   105   1 H    0.995 --    51 C    0.965
   106   1 H    0.996 --    51 C    0.961
   107   1 H    0.998 --    52 C    0.975
   108   1 H    0.998 --    52 C    0.976
   109   1 H    0.999 --    53 C    0.960
   110   1 H    0.999 --    53 C    0.966
   111   1 H    0.971 --    54 N    0.928
   112   1 H    0.983 --    56 N    0.945
   113   1 H    0.973 --    57 N    0.945
   114   1 H    0.968 --    57 N    0.947
   115   1 H    0.992 --    58 C    0.972
   116   1 H    0.999 --    58 C    0.982
   117   1 H    0.998 --    58 C    0.979
 ---------------------------------------------------------------------------

Topologies differ in total number of bonds
Writing topology from bond orders to xtbtopo.mol

molecular dipole:
                 x           y           z       tot (Debye)
 q only:        2.332      13.822       2.024
   full:        2.886      14.116       1.710      36.879
molecular quadrupole (traceless):
                xx          xy          yy          xz          yz          zz
 q only:        4.731      12.788     -33.757      58.976     -92.971      29.026
  q+dip:      -11.817      35.931     -20.213      61.057     -93.396      32.031
   full:      -12.137      36.692     -19.083      59.541     -93.651      31.219


           -------------------------------------------------
          | TOTAL ENERGY             -185.522478093231 Eh   |
          | GRADIENT NORM               0.372126677877 Eh/α |
          | HOMO-LUMO GAP               0.176121853560 eV   |
           -------------------------------------------------

------------------------------------------------------------------------
 * finished run on 2026/05/23 at 12:41:14.204     
------------------------------------------------------------------------
 total:
 * wall-time:     0 d,  0 h,  0 min, 29.457 sec
 *  cpu-time:     0 d,  0 h,  0 min, 35.648 sec
 * ratio c/w:     1.210 speedup
 SCF:
 * wall-time:     0 d,  0 h,  0 min, 28.415 sec
 *  cpu-time:     0 d,  0 h,  0 min, 34.266 sec
 * ratio c/w:     1.206 speedup

normal termination of xtb
