      -----------------------------------------------------------      
     |                   =====================                   |     
     |                           x T B                           |     
     |                   =====================                   |     
     |                         S. Grimme                         |     
     |          Mulliken Center for Theoretical Chemistry        |     
     |                    University of Bonn                     |     
      -----------------------------------------------------------      

   * xtb version 6.7.1 (edcfbbe) compiled by 'albert@albert-system' on 2024-07-22

   xtb is free software: you can redistribute it and/or modify it under
   the terms of the GNU Lesser General Public License as published by
   the Free Software Foundation, either version 3 of the License, or
   (at your option) any later version.
   
   xtb is distributed in the hope that it will be useful,
   but WITHOUT ANY WARRANTY; without even the implied warranty of
   MERCHANTABILITY or FITNESS FOR A PARTICULAR PURPOSE.  See the
   GNU Lesser General Public License for more details.
   
   Cite this work as:
   * C. Bannwarth, E. Caldeweyher, S. Ehlert, A. Hansen, P. Pracht,
     J. Seibert, S. Spicher, S. Grimme, WIREs Comput. Mol. Sci., 2020, 11,
     e01493. DOI: 10.1002/wcms.1493
   
   for GFN2-xTB:
   * C. Bannwarth, S. Ehlert and S. Grimme., J. Chem. Theory Comput., 2019,
     15, 1652-1671. DOI: 10.1021/acs.jctc.8b01176
   for GFN1-xTB:
   * S. Grimme, C. Bannwarth, P. Shushkov, J. Chem. Theory Comput., 2017,
     13, 1989-2009. DOI: 10.1021/acs.jctc.7b00118
   for GFN0-xTB:
   * P. Pracht, E. Caldeweyher, S. Ehlert, S. Grimme, ChemRxiv, 2019, preprint.
     DOI: 10.26434/chemrxiv.8326202.v1
   for GFN-FF:
   * S. Spicher and S. Grimme, Angew. Chem. Int. Ed., 2020, 59, 15665-15673.
     DOI: 10.1002/anie.202004239
   
   for ALPB and GBSA implicit solvation:
   * S. Ehlert, M. Stahn, S. Spicher, S. Grimme, J. Chem. Theory Comput.,
     2021, 17, 4250-4261. DOI: 10.1021/acs.jctc.1c00471
   
   for ddCOSMO and CPCM-X implicit solvation:
   * M. Stahn, S. Ehlert, S. Grimme, J. Phys. Chem. A,
     2023, XX, XXXX-XXXX. DOI: 10.1021/acs.jpca.3c04382
   
   for DFT-D4:
   * E. Caldeweyher, C. Bannwarth and S. Grimme, J. Chem. Phys., 2017,
     147, 034112. DOI: 10.1063/1.4993215
   * E. Caldeweyher, S. Ehlert, A. Hansen, H. Neugebauer, S. Spicher,
     C. Bannwarth and S. Grimme, J. Chem. Phys., 2019, 150, 154122.
     DOI: 10.1063/1.5090222
   * E. Caldeweyher, J.-M. Mewes, S. Ehlert and S. Grimme, Phys. Chem. Chem. Phys.
     2020, 22, 8499-8512. DOI: 10.1039/D0CP00502A
   
   for sTDA-xTB:
   * S. Grimme and C. Bannwarth, J. Chem. Phys., 2016, 145, 054103.
     DOI: 10.1063/1.4959605
   
   in the mass-spec context:
   * V. Asgeirsson, C. Bauer and S. Grimme, Chem. Sci., 2017, 8, 4879.
     DOI: 10.1039/c7sc00601b
   * J. Koopman and S. Grimme, ACS Omega 2019, 4, 12, 15120-15133.
     DOI: 10.1021/acsomega.9b02011
   
   for metadynamics refer to:
   * S. Grimme, J. Chem. Theory Comput., 2019, 155, 2847-2862
     DOI: 10.1021/acs.jctc.9b00143
   
   for SPH calculations refer to:
   * S. Spicher and S. Grimme, J. Chem. Theory Comput., 2021, 17, 1701-1714
     DOI: 10.1021/acs.jctc.0c01306
   
   for ONIOM refer to:
   * C. Plett, A. Katbashev, S. Ehlert, S. Grimme, M. Bursch,
     Phys. Chem. Chem. Phys., 2023, 25, 17860-17868. DOI: 10.1039/D3CP02178E
   
   for DIPRO refer to:
   * J. Kohn, N. Gildemeister, S. Grimme, D. Fazzi, A. Hansen,
     J. Chem. Phys., 2023, just accepted.
   
   for PTB refer to:
   * S. Grimme, M. Mueller, A. Hansen, J. Chem. Phys., 2023, 158, 124111.
     DOI: 10.1063/5.0137838
   
   with help from (in alphabetical order)
   P. Atkinson, C. Bannwarth, F. Bohle, G. Brandenburg, E. Caldeweyher
   M. Checinski, S. Dohm, S. Ehlert, S. Ehrlich, I. Gerasimov, C. Hölzer
   A. Katbashev, J. Kohn, J. Koopman, C. Lavigne, S. Lehtola, F. März, M. Müller,
   F. Musil, H. Neugebauer, J. Pisarek, C. Plett, P. Pracht, F. Pultar,
   J. Seibert, P. Shushkov, S. Spicher, M. Stahn, M. Steiner, T. Strunk,
   J. Stückrath, T. Rose, and J. Unsleber
   
 * started run on 2026/05/23 at 12:54:33.364     
   ID    Z sym.   atoms
    1    7 N      1, 5, 10, 18, 29, 37, 45, 48
    2    6 C      2, 3, 6-8, 11-14, 16, 17, 19-25, 27, 28, 30-33, 35, 36,
                  38-43, 46, 47, 49-56
    3    8 O      4, 9, 15, 26, 34, 44
    4    1 H      57-114

           -------------------------------------------------
          |                Calculation Setup                |
           -------------------------------------------------

          program call               : /home/xchen/software/xtb-6.7.1/xtb-dist/bin/xtb /home/xchen/Test/benchmark/md_sampled/10_6_0573_0/snap_0161.xyz --charge 0 --gfn 2 --norestart
          coordinate file            : /home/xchen/Test/benchmark/md_sampled/10_6_0573_0/snap_0161.xyz
          omp threads                :                    48


           -------------------------------------------------
          |                 G F N 2 - x T B                 |
           -------------------------------------------------

        Reference                      10.1021/acs.jctc.8b01176
      * Hamiltonian:
        H0-scaling (s, p, d)           1.850000    2.230000    2.230000
        zeta-weighting                 0.500000
      * Dispersion:
        s8                             2.700000
        a1                             0.520000
        a2                             5.000000
        s9                             5.000000
      * Repulsion:
        kExp                           1.500000    1.000000
        rExp                           1.000000
      * Coulomb:
        alpha                          2.000000
        third order                    shell-resolved
        anisotropic                    true
        a3                             3.000000
        a5                             4.000000
        cn-shift                       1.200000
        cn-exp                         4.000000
        max-rad                        5.000000


          ...................................................
          :                      SETUP                      :
          :.................................................:
          :  # basis functions                 282          :
          :  # atomic orbitals                 282          :
          :  # shells                          170          :
          :  # electrons                       302          :
          :  max. iterations                   250          :
          :  Hamiltonian                  GFN2-xTB          :
          :  restarted?                      false          :
          :  GBSA solvation                  false          :
          :  PC potential                    false          :
          :  electronic temp.          300.0000000     K    :
          :  accuracy                    1.0000000          :
          :  -> integral cutoff          0.2500000E+02      :
          :  -> integral neglect         0.1000000E-07      :
          :  -> SCF convergence          0.1000000E-05 Eh   :
          :  -> wf. convergence          0.1000000E-03 e    :
          :  Broyden damping             0.4000000          :
          :  net charge                          0          :
          :  unpaired electrons                  0          :
          ...................................................

 iter      E             dE          RMSdq      gap      omega  full diag
   1   -168.9113398 -0.168911E+03  0.376E+00    3.55       0.0  T
   2   -169.3265591 -0.415219E+00  0.218E+00    2.48       1.0  T
   3   -169.3659130 -0.393539E-01  0.122E+00    3.14       1.0  T
   4   -169.3735509 -0.763797E-02  0.306E-01    2.64       1.0  T
   5   -169.3826953 -0.914430E-02  0.102E-01    2.79       1.0  T
   6   -169.3830197 -0.324477E-03  0.533E-02    2.78       1.0  T
   7   -169.3831200 -0.100250E-03  0.251E-02    2.78       1.0  T
   8   -169.3831321 -0.121356E-04  0.754E-03    2.78       1.2  T
   9   -169.3831339 -0.178632E-05  0.370E-03    2.77       2.5  T
  10   -169.3831345 -0.596597E-06  0.150E-03    2.77       6.2  T
  11   -169.3831346 -0.638545E-07  0.681E-04    2.77      13.8  T
  12   -169.3831346 -0.153954E-07  0.246E-04    2.77      38.1  T

   *** convergence criteria satisfied after 12 iterations ***

         #    Occupation            Energy/Eh            Energy/eV
      -------------------------------------------------------------
         1        2.0000           -0.7315168             -19.9056
       ...           ...                  ...                  ...
       145        2.0000           -0.4003077             -10.8929
       146        2.0000           -0.3945459             -10.7361
       147        2.0000           -0.3936058             -10.7106
       148        2.0000           -0.3853551             -10.4860
       149        2.0000           -0.3814245             -10.3791
       150        2.0000           -0.3746996             -10.1961
       151        2.0000           -0.3650227              -9.9328 (HOMO)
       152                         -0.2631097              -7.1596 (LUMO)
       153                         -0.2483566              -6.7581
       154                         -0.2449228              -6.6647
       155                         -0.2436450              -6.6299
       156                         -0.2394350              -6.5154
       ...                                ...                  ...
       282                          0.6996678              19.0389
      -------------------------------------------------------------
                  HL-Gap            0.1019129 Eh            2.7732 eV
             Fermi-level           -0.3140662 Eh           -8.5462 eV

 SCC (total)                   0 d,  0 h,  0 min, 14.007 sec
 SCC setup                      ...        0 min,  0.032 sec (  0.226%)
 Dispersion                     ...        0 min,  0.112 sec (  0.798%)
 classical contributions        ...        0 min,  0.028 sec (  0.203%)
 integral evaluation            ...        0 min,  0.438 sec (  3.129%)
 iterations                     ...        0 min, 12.543 sec ( 89.551%)
 molecular gradient             ...        0 min,  0.841 sec (  6.004%)
 printout                       ...        0 min,  0.012 sec (  0.086%)

         :::::::::::::::::::::::::::::::::::::::::::::::::::::
         ::                     SUMMARY                     ::
         :::::::::::::::::::::::::::::::::::::::::::::::::::::
         :: total energy            -167.165067202690 Eh    ::
         :: gradient norm              0.390026009118 Eh/a0 ::
         :: HOMO-LUMO gap              2.773192028635 eV    ::
         ::.................................................::
         :: SCC energy              -169.375644412529 Eh    ::
         :: -> isotropic ES            0.248346658616 Eh    ::
         :: -> anisotropic ES          0.024007271108 Eh    ::
         :: -> anisotropic XC          0.080522190094 Eh    ::
         :: -> dispersion             -0.140861163206 Eh    ::
         :: repulsion energy           2.210577209839 Eh    ::
         :: add. restraining           0.000000000000 Eh    ::
         :: total charge              -0.000000000000 e     ::
         :::::::::::::::::::::::::::::::::::::::::::::::::::::

           -------------------------------------------------
          |                Property Printout                |
           -------------------------------------------------

    * Orbital Energies and Occupations

         #    Occupation            Energy/Eh            Energy/eV
      -------------------------------------------------------------
         1        2.0000           -0.7315168             -19.9056
       ...           ...                  ...                  ...
       139        2.0000           -0.4199609             -11.4277
       140        2.0000           -0.4192689             -11.4089
       141        2.0000           -0.4184953             -11.3878
       142        2.0000           -0.4141277             -11.2690
       143        2.0000           -0.4079309             -11.1004
       144        2.0000           -0.4046508             -11.0111
       145        2.0000           -0.4003077             -10.8929
       146        2.0000           -0.3945459             -10.7361
       147        2.0000           -0.3936058             -10.7106
       148        2.0000           -0.3853551             -10.4860
       149        2.0000           -0.3814245             -10.3791
       150        2.0000           -0.3746996             -10.1961
       151        2.0000           -0.3650227              -9.9328 (HOMO)
       152                         -0.2631097              -7.1596 (LUMO)
       153                         -0.2483566              -6.7581
       154                         -0.2449228              -6.6647
       155                         -0.2436450              -6.6299
       156                         -0.2394350              -6.5154
       157                         -0.2364517              -6.4342
       158                         -0.2319500              -6.3117
       159                         -0.2276185              -6.1938
       160                         -0.2242541              -6.1023
       161                         -0.2136353              -5.8133
       162                         -0.1974780              -5.3736
       ...                                ...                  ...
       282                          0.6996678              19.0389
      -------------------------------------------------------------
                  HL-Gap            0.1019129 Eh            2.7732 eV
             Fermi-level           -0.3140662 Eh           -8.5462 eV

     #   Z          covCN         q      C6AA      α(0)
     1   7 N        2.679    -0.212    25.610     7.516
     2   6 C        3.796     0.022    20.208     6.401
     3   6 C        2.747     0.263    22.572     7.779
     4   8 O        0.857    -0.468    23.085     6.442
     5   7 N        2.681    -0.181    24.919     7.414
     6   6 C        3.782     0.006    20.494     6.449
     7   6 C        2.752     0.257    22.675     7.797
     8   6 C        3.784     0.015    20.343     6.425
     9   8 O        0.857    -0.404    21.761     6.254
    10   7 N        2.694    -0.214    25.672     7.525
    11   6 C        3.784    -0.057    21.617     6.623
    12   6 C        2.769     0.265    22.524     7.773
    13   6 C        2.963     0.019    27.572     8.613
    14   6 C        3.780     0.023    20.213     6.405
    15   8 O        0.857    -0.420    22.076     6.299
    16   6 C        2.963    -0.038    28.954     8.826
    17   6 C        2.955    -0.035    28.875     8.814
    18   7 N        2.698    -0.200    25.334     7.475
    19   6 C        3.793    -0.072    21.879     6.661
    20   6 C        2.907    -0.030    28.741     8.791
    21   6 C        2.900    -0.032    28.796     8.799
    22   6 C        2.786     0.268    22.473     7.765
    23   6 C        3.848    -0.007    20.671     6.467
    24   6 C        2.943    -0.027    28.678     8.783
    25   6 C        3.807     0.007    20.459     6.439
    26   8 O        0.856    -0.382    21.330     6.192
    27   6 C        3.760    -0.121    22.862     6.816
    28   6 C        3.730    -0.093    22.385     6.754
    29   7 N        2.710    -0.191    25.131     7.446
    30   6 C        3.801    -0.086    22.137     6.699
    31   6 C        2.766     0.284    22.183     7.713
    32   6 C        2.972     0.002    27.977     8.676
    33   6 C        3.760     0.014    20.391     6.437
    34   8 O        0.858    -0.392    21.522     6.220
    35   6 C        2.937    -0.040    28.997     8.831
    36   6 C        2.919    -0.042    29.049     8.838
    37   7 N        2.669    -0.207    25.510     7.501
    38   6 C        3.801    -0.059    21.637     6.623
    39   6 C        2.937    -0.032    28.798     8.801
    40   6 C        2.934    -0.032    28.808     8.802
    41   6 C        2.757     0.278    22.291     7.731
    42   6 C        3.099     0.053    26.693     8.467
    43   6 C        2.933    -0.028    28.702     8.786
    44   8 O        0.858    -0.434    22.367     6.341
    45   7 N        1.979    -0.249    27.309     7.750
    46   6 C        3.043    -0.023    28.547     8.763
    47   6 C        3.025     0.100    25.754     8.324
    48   7 N        2.809    -0.117    23.534     7.205
    49   6 C        3.847    -0.033    21.135     6.539
    50   6 C        3.734    -0.105    22.608     6.786
    51   6 C        3.781    -0.071    21.870     6.662
    52   6 C        3.737    -0.113    22.751     6.807
    53   6 C        3.841    -0.027    21.028     6.523
    54   6 C        3.730    -0.105    22.610     6.788
    55   6 C        3.789    -0.059    21.639     6.625
    56   6 C        3.749    -0.108    22.636     6.786
    57   1 H        0.858     0.172     1.261     1.759
    58   1 H        0.923     0.075     2.034     2.231
    59   1 H        0.861     0.190     1.158     1.686
    60   1 H        0.927     0.111     1.687     2.031
    61   1 H        0.919     0.099     1.798     2.097
    62   1 H        0.860     0.194     1.136     1.670
    63   1 H        0.908     0.019     2.760     2.599
    64   1 H        0.920     0.033     2.544     2.495
    65   1 H        0.921     0.108     1.711     2.046
    66   1 H        0.927     0.022     2.700     2.570
    67   1 H        0.927     0.043     2.405     2.425
    68   1 H        0.857     0.175     1.242     1.746
    69   1 H        0.926     0.038     2.473     2.459
    70   1 H        0.925     0.068     2.111     2.272
    71   1 H        0.926     0.039     2.458     2.452
    72   1 H        0.918     0.039     2.464     2.455
    73   1 H        0.924     0.033     2.545     2.495
    74   1 H        0.919     0.021     2.714     2.576
    75   1 H        0.923     0.101     1.777     2.084
    76   1 H        0.929     0.054     2.271     2.356
    77   1 H        0.926     0.038     2.477     2.461
    78   1 H        0.926     0.042     2.417     2.431
    79   1 H        0.921     0.037     2.491     2.468
    80   1 H        0.906     0.015     2.821     2.627
    81   1 H        0.914     0.027     2.630     2.536
    82   1 H        0.853     0.164     1.310     1.793
    83   1 H        0.926     0.065     2.142     2.289
    84   1 H        0.927     0.055     2.259     2.350
    85   1 H        0.900     0.090     1.886     2.149
    86   1 H        0.927     0.026     2.647     2.544
    87   1 H        0.928     0.046     2.370     2.407
    88   1 H        0.854     0.208     1.068     1.619
    89   1 H        0.923     0.073     2.053     2.241
    90   1 H        0.925     0.035     2.514     2.480
    91   1 H        0.929     0.042     2.419     2.432
    92   1 H        0.929     0.047     2.356     2.400
    93   1 H        0.925     0.036     2.508     2.476
    94   1 H        0.927     0.057     2.231     2.336
    95   1 H        0.903     0.026     2.648     2.546
    96   1 H        0.859     0.158     1.349     1.820
    97   1 H        0.929     0.049     2.327     2.385
    98   1 H        0.924     0.032     2.557     2.500
    99   1 H        0.918     0.051     2.312     2.378
   100   1 H        0.917     0.010     2.885     2.656
   101   1 H        0.914     0.044     2.404     2.425
   102   1 H        0.928     0.056     2.241     2.341
   103   1 H        0.923     0.048     2.350     2.398
   104   1 H        0.920     0.042     2.419     2.432
   105   1 H        0.928     0.047     2.358     2.401
   106   1 H        0.924     0.058     2.224     2.332
   107   1 H        0.915     0.044     2.403     2.424
   108   1 H        0.924     0.046     2.370     2.408
   109   1 H        0.919     0.025     2.659     2.550
   110   1 H        0.923     0.055     2.264     2.353
   111   1 H        0.919     0.025     2.657     2.549
   112   1 H        0.927     0.047     2.353     2.399
   113   1 H        0.922     0.034     2.528     2.486
   114   1 H        0.924     0.035     2.512     2.479

 Mol. C6AA /au·bohr⁶  :     129238.725756
 Mol. C8AA /au·bohr⁸  :    2950643.284523
 Mol. α(0) /au        :        548.578208


Wiberg/Mayer (AO) data.
largest (>0.10) Wiberg bond orders for each atom

 ---------------------------------------------------------------------------
     #   Z sym  total        # sym  WBO       # sym  WBO       # sym  WBO
 ---------------------------------------------------------------------------
     1   7 N    3.404 --     7 C    1.191     2 C    0.979    57 H    0.937
                             9 O    0.196
     2   6 C    3.958 --     1 N    0.979    49 C    0.961    58 H    0.946
                             3 C    0.930
     3   6 C    3.960 --     4 O    1.622     5 N    1.341     2 C    0.930
     4   8 O    1.945 --     3 C    1.622     5 N    0.204
     5   7 N    3.473 --     3 C    1.341     6 C    0.917    59 H    0.914
                             4 O    0.204
     6   6 C    3.939 --    53 C    0.976    41 C    0.947    60 H    0.947
                             5 N    0.917
     7   6 C    3.938 --     9 O    1.715     1 N    1.191     8 C    0.943
     8   6 C    3.968 --    10 N    1.017    11 C    0.946     7 C    0.943
                            61 H    0.920
     9   8 O    2.063 --     7 C    1.715     1 N    0.196
    10   7 N    3.369 --    12 C    1.164     8 C    1.017    62 H    0.912
                            15 O    0.180
    11   6 C    3.989 --    13 C    1.019    63 H    0.972    64 H    0.962
                             8 C    0.946
    12   6 C    3.944 --    15 O    1.708    10 N    1.164    14 C    0.983
    13   6 C    3.990 --    17 C    1.457    16 C    1.366    11 C    1.019
                            24 C    0.106
    14   6 C    3.969 --    18 N    1.029    12 C    0.983    19 C    0.935
                            65 H    0.912
    15   8 O    2.029 --    12 C    1.708    10 N    0.180
    16   6 C    3.991 --    20 C    1.469    13 C    1.366    66 H    0.969
                            21 C    0.125
    17   6 C    3.992 --    13 C    1.457    21 C    1.411    67 H    0.966
                            20 C    0.100
    18   7 N    3.416 --    22 C    1.176    14 C    1.029    68 H    0.905
                            26 O    0.196
    19   6 C    3.981 --    23 C    1.002    69 H    0.975    70 H    0.971
                            14 C    0.935
    20   6 C    3.991 --    16 C    1.469    24 C    1.427    71 H    0.968
                            17 C    0.100
    21   6 C    3.985 --    24 C    1.450    17 C    1.411    72 H    0.970
                            16 C    0.125
    22   6 C    3.953 --    26 O    1.739    18 N    1.176    25 C    0.947
    23   6 C    3.993 --    28 C    1.011    19 C    1.002    27 C    0.999
                            73 H    0.967
    24   6 C    3.987 --    21 C    1.450    20 C    1.427    74 H    0.969
                            13 C    0.106
    25   6 C    3.948 --    30 C    0.985    22 C    0.947    75 H    0.935
                            29 N    0.935
    26   8 O    2.067 --    22 C    1.739    18 N    0.196
    27   6 C    3.989 --    23 C    0.999    78 H    0.987    76 H    0.986
                            77 H    0.984
    28   6 C    3.993 --    23 C    1.011    81 H    0.985    79 H    0.984
                            80 H    0.983
    29   7 N    3.381 --    31 C    1.217    25 C    0.935    82 H    0.932
                            34 O    0.173
    30   6 C    3.994 --    32 C    0.995    25 C    0.985    83 H    0.958
                            84 H    0.957
    31   6 C    3.946 --    34 O    1.728    29 N    1.217    33 C    0.943
    32   6 C    3.984 --    35 C    1.433    36 C    1.389    30 C    0.995
                            43 C    0.115
    33   6 C    3.951 --    38 C    0.973    85 H    0.949    37 N    0.948
                            31 C    0.943
    34   8 O    2.052 --    31 C    1.728    29 N    0.173
    35   6 C    3.991 --    32 C    1.433    39 C    1.429    86 H    0.967
                            40 C    0.110
    36   6 C    3.991 --    40 C    1.466    32 C    1.389    87 H    0.966
                            39 C    0.108
    37   7 N    3.388 --    41 C    1.273    33 C    0.948    88 H    0.894
                            44 O    0.185
    38   6 C    3.990 --    42 C    0.999    33 C    0.973    90 H    0.959
                            89 H    0.955
    39   6 C    3.996 --    43 C    1.463    35 C    1.429    91 H    0.971
                            36 C    0.108
    40   6 C    3.991 --    36 C    1.466    43 C    1.413    92 H    0.973
                            35 C    0.110
    41   6 C    3.957 --    44 O    1.670    37 N    1.273     6 C    0.947
    42   6 C    3.969 --    46 C    1.584    45 N    1.238    38 C    0.999
    43   6 C    3.992 --    39 C    1.463    40 C    1.413    93 H    0.969
                            32 C    0.115
    44   8 O    1.990 --    41 C    1.670    37 N    0.185
    45   7 N    3.057 --    47 C    1.616    42 C    1.238    48 N    0.116
    46   6 C    3.942 --    42 C    1.584    48 N    1.207    94 H    0.965
                            47 C    0.112
    47   6 C    3.949 --    45 N    1.616    48 N    1.206    95 H    0.955
                            46 C    0.112
    48   7 N    3.557 --    46 C    1.207    47 C    1.206    96 H    0.944
                            45 N    0.116
    49   6 C    3.985 --    50 C    1.006    51 C    0.983    97 H    0.967
                             2 C    0.961
    50   6 C    3.989 --    49 C    1.006   100 H    0.982    98 H    0.981
                            99 H    0.976
    51   6 C    3.984 --    52 C    1.007    49 C    0.983   101 H    0.977
                           102 H    0.976
    52   6 C    3.988 --    51 C    1.007   104 H    0.985   103 H    0.985
                           105 H    0.984
    53   6 C    3.984 --    54 C    0.996    55 C    0.987     6 C    0.976
                           106 H    0.965
    54   6 C    3.989 --    53 C    0.996   108 H    0.983   109 H    0.983
                           107 H    0.978
    55   6 C    3.992 --    56 C    1.022    53 C    0.987   111 H    0.972
                           110 H    0.964
    56   6 C    3.992 --    55 C    1.022   114 H    0.987   113 H    0.983
                           112 H    0.979
    57   1 H    0.970 --     1 N    0.937
    58   1 H    0.994 --     2 C    0.946
    59   1 H    0.964 --     5 N    0.914
    60   1 H    0.987 --     6 C    0.947
    61   1 H    0.990 --     8 C    0.920
    62   1 H    0.962 --    10 N    0.912
    63   1 H    0.999 --    11 C    0.972
    64   1 H    0.998 --    11 C    0.962
    65   1 H    0.988 --    14 C    0.912
    66   1 H    0.999 --    16 C    0.969
    67   1 H    0.998 --    17 C    0.966
    68   1 H    0.969 --    18 N    0.905
    69   1 H    0.999 --    19 C    0.975
    70   1 H    0.995 --    19 C    0.971
    71   1 H    0.998 --    20 C    0.968
    72   1 H    0.998 --    21 C    0.970
    73   1 H    0.999 --    23 C    0.967
    74   1 H    0.999 --    24 C    0.969
    75   1 H    0.989 --    25 C    0.935
    76   1 H    0.997 --    27 C    0.986
    77   1 H    0.998 --    27 C    0.984
    78   1 H    0.998 --    27 C    0.987
    79   1 H    0.998 --    28 C    0.984
    80   1 H    1.000 --    28 C    0.983
    81   1 H    0.999 --    28 C    0.985
    82   1 H    0.973 --    29 N    0.932
    83   1 H    0.995 --    30 C    0.958
    84   1 H    0.997 --    30 C    0.957
    85   1 H    0.991 --    33 C    0.949
    86   1 H    0.999 --    35 C    0.967
    87   1 H    0.998 --    36 C    0.966
    88   1 H    0.956 --    37 N    0.894
    89   1 H    0.994 --    38 C    0.955
    90   1 H    0.999 --    38 C    0.959
    91   1 H    0.998 --    39 C    0.971
    92   1 H    0.998 --    40 C    0.973
    93   1 H    0.998 --    43 C    0.969
    94   1 H    0.997 --    46 C    0.965
    95   1 H    0.999 --    47 C    0.955
    96   1 H    0.975 --    48 N    0.944
    97   1 H    0.997 --    49 C    0.967
    98   1 H    0.999 --    50 C    0.981
    99   1 H    0.997 --    50 C    0.976
   100   1 H    1.000 --    50 C    0.982
   101   1 H    0.998 --    51 C    0.977
   102   1 H    0.997 --    51 C    0.976
   103   1 H    0.998 --    52 C    0.985
   104   1 H    0.998 --    52 C    0.985
   105   1 H    0.998 --    52 C    0.984
   106   1 H    0.996 --    53 C    0.965
   107   1 H    0.998 --    54 C    0.978
   108   1 H    0.998 --    54 C    0.983
   109   1 H    0.999 --    54 C    0.983
   110   1 H    0.997 --    55 C    0.964
   111   1 H    0.999 --    55 C    0.972
   112   1 H    0.997 --    56 C    0.979
   113   1 H    0.998 --    56 C    0.983
   114   1 H    0.999 --    56 C    0.987
 ---------------------------------------------------------------------------

Topologies differ in total number of bonds
Writing topology from bond orders to xtbtopo.mol

molecular dipole:
                 x           y           z       tot (Debye)
 q only:       -0.749       1.412      -4.444
   full:       -0.907       1.649      -4.950      13.461
molecular quadrupole (traceless):
                xx          xy          yy          xz          yz          zz
 q only:       35.606      28.322      -7.173      -1.856      13.515     -28.433
  q+dip:       48.544      29.039     -14.882       4.283      14.544     -33.662
   full:       47.315      32.463     -14.839       3.493      13.577     -32.477


           -------------------------------------------------
          | TOTAL ENERGY             -167.165067202690 Eh   |
          | GRADIENT NORM               0.390026009118 Eh/α |
          | HOMO-LUMO GAP               2.773192028635 eV   |
           -------------------------------------------------

------------------------------------------------------------------------
 * finished run on 2026/05/23 at 12:54:48.038     
------------------------------------------------------------------------
 total:
 * wall-time:     0 d,  0 h,  0 min, 14.673 sec
 *  cpu-time:     0 d,  0 h,  0 min, 23.972 sec
 * ratio c/w:     1.634 speedup
 SCF:
 * wall-time:     0 d,  0 h,  0 min, 14.008 sec
 *  cpu-time:     0 d,  0 h,  0 min, 22.749 sec
 * ratio c/w:     1.624 speedup

normal termination of xtb
