      -----------------------------------------------------------      
     |                   =====================                   |     
     |                           x T B                           |     
     |                   =====================                   |     
     |                         S. Grimme                         |     
     |          Mulliken Center for Theoretical Chemistry        |     
     |                    University of Bonn                     |     
      -----------------------------------------------------------      

   * xtb version 6.7.1 (26dd68d) compiled by 'froitzheim@fs7' on 2026-05-14

   xtb is free software: you can redistribute it and/or modify it under
   the terms of the GNU Lesser General Public License as published by
   the Free Software Foundation, either version 3 of the License, or
   (at your option) any later version.
   
   xtb is distributed in the hope that it will be useful,
   but WITHOUT ANY WARRANTY; without even the implied warranty of
   MERCHANTABILITY or FITNESS FOR A PARTICULAR PURPOSE.  See the
   GNU Lesser General Public License for more details.
   
   Cite this work as:
   * C. Bannwarth, E. Caldeweyher, S. Ehlert, A. Hansen, P. Pracht,
     J. Seibert, S. Spicher, S. Grimme, WIREs Comput. Mol. Sci., 2020, 11,
     e01493. DOI: 10.1002/wcms.1493
   
   for g-xTB:
   * T. Froitzheim, M. Müller, A. Hansen, S. Grimme, ChemRxiv, 2025, preprint.
     DOI: 10.26434/chemrxiv-2025-bjxv
   for GFN2-xTB:
   * C. Bannwarth, S. Ehlert and S. Grimme., J. Chem. Theory Comput., 2019,
     15, 1652-1671. DOI: 10.1021/acs.jctc.8b01176
   for GFN1-xTB:
   * S. Grimme, C. Bannwarth, P. Shushkov, J. Chem. Theory Comput., 2017,
     13, 1989-2009. DOI: 10.1021/acs.jctc.7b00118
   for GFN0-xTB:
   * P. Pracht, E. Caldeweyher, S. Ehlert, S. Grimme, ChemRxiv, 2019, preprint.
     DOI: 10.26434/chemrxiv.8326202.v1
   for GFN-FF:
   * S. Spicher and S. Grimme, Angew. Chem. Int. Ed., 2020, 59, 15665-15673.
     DOI: 10.1002/anie.202004239
   
   for ALPB and GBSA implicit solvation:
   * S. Ehlert, M. Stahn, S. Spicher, S. Grimme, J. Chem. Theory Comput.,
     2021, 17, 4250-4261. DOI: 10.1021/acs.jctc.1c00471
   
   for ddCOSMO and CPCM-X implicit solvation:
   * M. Stahn, S. Ehlert, S. Grimme, J. Phys. Chem. A,
     2023, XX, XXXX-XXXX. DOI: 10.1021/acs.jpca.3c04382
   
   for DFT-D4:
   * E. Caldeweyher, C. Bannwarth and S. Grimme, J. Chem. Phys., 2017,
     147, 034112. DOI: 10.1063/1.4993215
   * E. Caldeweyher, S. Ehlert, A. Hansen, H. Neugebauer, S. Spicher,
     C. Bannwarth and S. Grimme, J. Chem. Phys., 2019, 150, 154122.
     DOI: 10.1063/1.5090222
   * E. Caldeweyher, J.-M. Mewes, S. Ehlert and S. Grimme, Phys. Chem. Chem. Phys.
     2020, 22, 8499-8512. DOI: 10.1039/D0CP00502A
   
   for sTDA-xTB:
   * S. Grimme and C. Bannwarth, J. Chem. Phys., 2016, 145, 054103.
     DOI: 10.1063/1.4959605
   
   in the mass-spec context:
   * V. Asgeirsson, C. Bauer and S. Grimme, Chem. Sci., 2017, 8, 4879.
     DOI: 10.1039/c7sc00601b
   * J. Koopman and S. Grimme, ACS Omega 2019, 4, 12, 15120-15133.
     DOI: 10.1021/acsomega.9b02011
   
   for metadynamics refer to:
   * S. Grimme, J. Chem. Theory Comput., 2019, 155, 2847-2862
     DOI: 10.1021/acs.jctc.9b00143
   
   for SPH calculations refer to:
   * S. Spicher and S. Grimme, J. Chem. Theory Comput., 2021, 17, 1701-1714
     DOI: 10.1021/acs.jctc.0c01306
   
   for ONIOM refer to:
   * C. Plett, A. Katbashev, S. Ehlert, S. Grimme, M. Bursch,
     Phys. Chem. Chem. Phys., 2023, 25, 17860-17868. DOI: 10.1039/D3CP02178E
   
   for DIPRO refer to:
   * J. Kohn, N. Gildemeister, S. Grimme, D. Fazzi, A. Hansen,
     J. Chem. Phys. 159, 144106 (2023). DOI: 10.1063/5.0167484
   
   for PTB refer to:
   * S. Grimme, M. Mueller, A. Hansen, J. Chem. Phys., 2023, 158, 124111.
     DOI: 10.1063/5.0137838
   
   with help from (in alphabetical order)
   P. Atkinson, C. Bannwarth, F. Bohle, G. Brandenburg, E. Caldeweyher,
   M. Checinski, S. Dohm, S. Ehlert, S. Ehrlich, M. Friede, T. Froitzheim,
   I. Gerasimov, C. Hölzer, A. Katbashev, J. Kohn, J. Koopman, C. Lavigne,
   S. Lehtola, F. März, M. Müller, F. Musil, H. Neugebauer, J. Pisarek,
   C. Plett, P. Pracht, F. Pultar, J. Seibert, P. Shushkov, S. Spicher,
   M. Stahn, M. Steiner, T. Strunk, J. Stückrath, T. Rose, and J. Unsleber
   
 * started run on 2026/05/23 at 12:51:14.964     
   ID    Z sym.   atoms
    1    7 N      1, 5, 10, 17, 27, 34, 39, 43, 54, 56, 57
    2    6 C      2, 3, 6-8, 11-14, 16, 18, 21-23, 28-31, 33, 35-38, 40,
                  44-48, 50-53, 55, 58
    3    8 O      4, 9, 15, 19, 20, 24-26, 32, 41, 49
    4   16 S      42
    5    1 H      59-117

           -------------------------------------------------
          |                Calculation Setup                |
           -------------------------------------------------

          program call               : /home/xchen/software/xtb-6.7.1-gxtb/bin/xtb /home/xchen/Test/benchmark/md_sampled/04_7_0231_n2/snap_0105.xyz --charge -2 --gxtb --norestart
          coordinate file            : /home/xchen/Test/benchmark/md_sampled/04_7_0231_n2/snap_0105.xyz
          omp threads                :                    48

core increment energy         -2.9312527735450E+03 Eh
dispersion energy              2.3297362878151E-02 Eh
molecular charge              -2.0000000000000E+00 e
number of electrons            3.2799999999710E+02 e
number of unpaired electrons   0.0000000000000E+00 e
wavefunction                   restricted
integral cutoff                2.6907767250513E+01 bohr
energy convergence             1.0000000000000E-06 Eh
density convergence            2.0000000000000E-05 e

------------------------------------------------------------
  cycle        total energy    energy error   density error
------------------------------------------------------------
      1     -3195.865478204  -2.6463600E+02   0.0000000E+00
      2     -3196.364927830  -4.9944963E-01   2.0549469E-02
      3     -3196.683819383  -3.1889155E-01   1.6112758E-02
      4     -3197.355899553  -6.7208017E-01   1.2697323E-02
      5     -3197.365764579  -9.8650261E-03   8.3976547E-04
      6     -3197.366588760  -8.2418159E-04   1.7981568E-04
      7     -3197.366655703  -6.6942120E-05   4.9835355E-05
      8     -3197.366660527  -4.8241728E-06   1.6036445E-05
      9     -3197.366661133  -6.0583903E-07   2.4228584E-06
------------------------------------------------------------

electronic energy             -2.6613718495042E+02 Eh
total energy                  -3.1973666611325E+03 Eh

Post processing:
 | Mayer-Wiberg bond orders
 | Molecular Multipole Moments

 total:                                  36.791 sec
 - increment                              0.000 sec (  0%)
 - repulsion                              0.009 sec (  0%)
 - dispersion                             0.574 sec (  1%)
 - coulomb                                0.252 sec (  0%)
 - exchange                               0.006 sec (  0%)
 - hamiltonian                           22.780 sec ( 61%)
 - acp                                    0.426 sec (  1%)
 - spin polarization                      0.000 sec (  0%)
 - post processing                        0.163 sec (  0%)
 - scc                                   11.481 sec ( 31%)
 - coulomb gradient                       0.092 sec (  0%)
 - dispersion gradient                    0.041 sec (  0%)
 - exchange gradient                      0.115 sec (  0%)
 - repulsion gradient                     0.012 sec (  0%)
 - acp gradient                           0.359 sec (  0%)
 - hamiltonian gradient                   0.635 sec (  1%)
 - gradient                               1.254 sec (  3%)

         :::::::::::::::::::::::::::::::::::::::::::::::::::::
         ::                     SUMMARY                     ::
         :::::::::::::::::::::::::::::::::::::::::::::::::::::
         :: total energy           -3197.366661132538 Eh    ::
         :: gradient norm              0.412639856285 Eh/a0 ::
         :: HOMO-LUMO gap              6.605005438550 eV    ::
         ::.................................................::
         :: add. restraining           0.000000000000 Eh    ::
         :: total charge              -2.000000000000 e     ::
         :::::::::::::::::::::::::::::::::::::::::::::::::::::

           -------------------------------------------------
          |                Property Printout                |
           -------------------------------------------------

    * Orbital Energies and Occupations
------------------------------------------------------------------
      #    Occupation            Energy/Eh            Energy/eV
------------------------------------------------------------------
      1        2.0000           -1.2192708             -33.1780
    ...           ...                  ...                  ...
    152        2.0000           -0.2137512              -5.8165
    153        2.0000           -0.2081747              -5.6647
    154        2.0000           -0.1993405              -5.4243
    155        2.0000           -0.1987849              -5.4092
    156        2.0000           -0.1959581              -5.3323
    157        2.0000           -0.1938965              -5.2762
    158        2.0000           -0.1877113              -5.1079
    159        2.0000           -0.1859914              -5.0611
    160        2.0000           -0.1691908              -4.6039
    161        2.0000           -0.1623512              -4.4178
    162        2.0000           -0.1315817              -3.5805
    163        2.0000           -0.1091485              -2.9701
    164        2.0000           -0.1071927              -2.9169 (HOMO)
    165                          0.1355368               3.6881 (LUMO)
    166                          0.1510189               4.1094
    167                          0.1548049               4.2125
    168                          0.1556635               4.2358
    169                          0.1637495               4.4559
    170                          0.1732564               4.7145
    171                          0.1824047               4.9635
    172                          0.1890809               5.1452
    173                          0.1927832               5.2459
    174                          0.2088789               5.6839
    175                          0.2191242               5.9627
    ...                                ...                  ...
    296                          0.9329484              25.3868
------------------------------------------------------------------
               HL-Gap            0.2427295 Eh            6.6050 eV
------------------------------------------------------------------

Atomic charges and shell populations (in atomic units):
-----------------------------------------------------------------
     #    Z                q          p(s)       p(p)       p(d)
-----------------------------------------------------------------
     1    7 N      -0.342125      1.348593   3.993532
     2    6 C       0.011714      1.123513   2.864773
     3    6 C       0.431237      1.094038   2.474724
     4    8 O      -0.554480      1.854948   4.699532
     5    7 N      -0.340750      1.368660   3.972089
     6    6 C      -0.026738      1.119125   2.907613
     7    6 C       0.430348      1.102945   2.466707
     8    6 C       0.018977      1.146466   2.834557
     9    8 O      -0.538536      1.848890   4.689646
    10    7 N      -0.310735      1.367603   3.943133
    11    6 C      -0.181984      1.146937   3.035048
    12    6 C       0.416437      1.102385   2.481177
    13    6 C      -0.198127      1.176675   3.021451
    14    6 C      -0.015478      1.123147   2.892330
    15    8 O      -0.624771      1.863632   4.761139
    16    6 C       0.517549      1.072827   2.409625
    17    7 N      -0.507167      1.556537   3.950630
    18    6 C      -0.181007      1.167769   3.013238
    19    8 O      -0.716923      1.849488   4.867435
    20    8 O      -0.690339      1.851042   4.839297
    21    6 C       0.365992      1.101651   2.532357
    22    6 C       0.502176      1.103949   2.393876
    23    6 C      -0.005179      1.124951   2.880227
    24    8 O      -0.675246      1.854086   4.821160
    25    8 O      -0.551012      1.856490   4.694523
    26    8 O      -0.538885      1.818758   4.720126
    27    7 N      -0.337550      1.365462   3.972088
    28    6 C      -0.165583      1.148943   3.016640
    29    6 C       0.398994      1.111116   2.489890
    30    6 C      -0.161525      1.144663   3.016862
    31    6 C       0.023047      1.123661   2.853292
    32    8 O      -0.575818      1.864840   4.710978
    33    6 C      -0.172728      1.172603   3.000124
    34    7 N      -0.335869      1.367204   3.968665
    35    6 C      -0.172686      1.163511   3.009175
    36    6 C      -0.101634      1.134541   2.967093
    37    6 C       0.394771      1.094511   2.510717
    38    6 C      -0.126427      1.178746   2.947680
    39    7 N      -0.539861      1.417951   4.121911
    40    6 C      -0.003503      1.127840   2.875662
    41    8 O      -0.570105      1.855885   4.714220
    42   16 S      -0.202254      1.869391   4.253940   0.078923
    43    7 N      -0.389865      1.370688   4.019177
    44    6 C      -0.110297      1.147559   2.962738
    45    6 C      -0.220277      1.184066   3.036211
    46    6 C       0.426380      1.092544   2.481075
    47    6 C      -0.251711      1.174254   3.077457
    48    6 C      -0.202200      1.154249   3.047951
    49    8 O      -0.497796      1.849063   4.648733
    50    6 C      -0.256664      1.167280   3.089384
    51    6 C      -0.182261      1.155748   3.026513
    52    6 C      -0.169869      1.170483   2.999386
    53    6 C      -0.090684      1.137611   2.953073
    54    7 N      -0.369533      1.357929   4.011603
    55    6 C       0.276692      1.085845   2.637463
    56    7 N      -0.563547      1.591583   3.971964
    57    7 N      -0.454059      1.418133   4.035926
    58    6 C      -0.285836      1.184025   3.101811
    59    1 H       0.270874      0.729126
    60    1 H       0.118351      0.881649
    61    1 H       0.289706      0.710294
    62    1 H       0.156883      0.843117
    63    1 H       0.092585      0.907415
    64    1 H       0.279932      0.720068
    65    1 H       0.116556      0.883444
    66    1 H       0.137014      0.862986
    67    1 H       0.078290      0.921710
    68    1 H       0.076280      0.923720
    69    1 H       0.122959      0.877041
    70    1 H       0.388328      0.611672
    71    1 H       0.127343      0.872657
    72    1 H       0.114464      0.885536
    73    1 H       0.121996      0.878004
    74    1 H       0.290706      0.709294
    75    1 H       0.087169      0.912831
    76    1 H       0.083177      0.916823
    77    1 H       0.104196      0.895804
    78    1 H       0.097446      0.902554
    79    1 H       0.115662      0.884338
    80    1 H       0.108353      0.891647
    81    1 H       0.063254      0.936746
    82    1 H       0.277878      0.722122
    83    1 H       0.110200      0.889800
    84    1 H       0.125430      0.874570
    85    1 H       0.058732      0.941268
    86    1 H       0.075694      0.924306
    87    1 H       0.108085      0.891915
    88    1 H       0.083917      0.916083
    89    1 H       0.270082      0.729918
    90    1 H       0.211814      0.788186
    91    1 H       0.146313      0.853687
    92    1 H       0.258637      0.741363
    93    1 H       0.110642      0.889358
    94    1 H       0.105366      0.894634
    95    1 H       0.124766      0.875234
    96    1 H       0.113347      0.886653
    97    1 H       0.103004      0.896996
    98    1 H       0.065446      0.934554
    99    1 H       0.105849      0.894151
   100    1 H       0.096081      0.903919
   101    1 H       0.116512      0.883488
   102    1 H       0.088471      0.911529
   103    1 H       0.096660      0.903340
   104    1 H       0.080213      0.919787
   105    1 H       0.124982      0.875018
   106    1 H       0.102047      0.897953
   107    1 H       0.106993      0.893007
   108    1 H       0.110289      0.889711
   109    1 H       0.080483      0.919517
   110    1 H       0.079522      0.920478
   111    1 H       0.246970      0.753030
   112    1 H       0.216590      0.783410
   113    1 H       0.247928      0.752072
   114    1 H       0.257938      0.742062
   115    1 H       0.153808      0.846192
   116    1 H       0.081261      0.918739
   117    1 H       0.111837      0.888163
-----------------------------------------------------------------


Wiberg/Mayer (AO) data.
largest (>0.10) Wiberg bond orders for each atom

 ---------------------------------------------------------------------------
     #   Z sym  total        # sym  WBO       # sym  WBO       # sym  WBO
 ---------------------------------------------------------------------------
     1   7 N    3.296 --     7 C    1.180     2 C    0.973    59 N    0.897
                             9 C    0.158
     2   6 C    3.946 --     1 N    0.973    51 C    0.969     3 C    0.953
                            60 N    0.935
     3   6 C    3.871 --     4 C    1.646     5 N    1.204     2 C    0.953
     4   8 C    1.928 --     3 C    1.646     5 N    0.159
     5   7 N    3.296 --     3 C    1.204     6 C    0.973    61 N    0.880
                             4 C    0.159
     6   6 C    3.942 --    58 C    0.984     5 N    0.973    46 C    0.949
                            62 N    0.925
     7   6 C    3.849 --     9 C    1.676     1 N    1.180     8 C    0.914
     8   6 C    3.919 --    11 C    0.994    10 N    0.946    63 N    0.937
                             7 C    0.914
     9   8 C    1.966 --     7 C    1.676     1 N    0.158
    10   7 N    3.379 --    12 C    1.297     8 C    0.946    64 N    0.862
                            15 C    0.156
    11   6 C    3.948 --    13 C    1.005     8 C    0.994    66 N    0.950
                            65 N    0.937
    12   6 C    3.870 --    15 C    1.549    10 N    1.297    14 C    0.943
    13   6 C    3.953 --    11 C    1.005    67 N    0.964    68 N    0.958
                            16 C    0.892
    14   6 C    3.960 --    17 N    0.992    18 C    0.974    12 C    0.943
                            69 N    0.932
    15   8 C    1.816 --    12 C    1.549    10 N    0.156
    16   6 C    3.863 --    20 C    1.496    19 C    1.453    13 C    0.892
    17   7 N    2.983 --    21 C    1.454    14 C    0.992    70 N    0.202
                            24 C    0.177
    18   6 C    3.957 --    14 C    0.974    72 N    0.961    22 C    0.945
                            71 N    0.942
    19   8 C    1.743 --    16 C    1.453    20 C    0.191
    20   8 C    1.769 --    16 C    1.496    19 C    0.191
    21   6 C    3.901 --    17 N    1.454    24 C    1.443    23 C    0.925
    22   6 C    3.822 --    25 C    1.686    26 C    1.160    18 C    0.945
    23   6 C    3.922 --    28 C    0.972    27 N    0.966    73 N    0.934
                            21 C    0.925
    24   8 C    1.800 --    21 C    1.443    17 N    0.177
    25   8 C    1.937 --    22 C    1.686    26 C    0.159
    26   8 C    2.069 --    22 C    1.160    70 N    0.624    25 C    0.159
    27   7 N    3.365 --    29 C    1.300    23 C    0.966    74 N    0.833
                            32 C    0.165
    28   6 C    3.970 --    30 C    1.025    23 C    0.972    75 N    0.955
                            76 N    0.934
    29   6 C    3.882 --    32 C    1.589    27 N    1.300    31 C    0.924
    30   6 C    3.965 --    28 C    1.025    33 C    0.993    78 N    0.952
                            77 N    0.933
    31   6 C    3.926 --    35 C    0.986    34 N    0.952    79 N    0.934
                            29 C    0.924
    32   8 C    1.874 --    29 C    1.589    27 N    0.165
    33   6 C    3.960 --    30 C    0.993    36 C    0.989    81 N    0.967
                            80 N    0.957
    34   7 N    3.361 --    37 C    1.278    31 C    0.952    82 N    0.848
                            41 C    0.176
    35   6 C    3.953 --    38 C    0.989    31 C    0.986    83 N    0.955
                            84 N    0.952
    36   6 C    3.963 --    39 N    1.040    33 C    0.989    86 N    0.961
                            85 N    0.954
    37   6 C    3.889 --    41 C    1.598    34 N    1.278    40 C    0.937
    38   6 C    3.941 --    42 O    1.014    35 C    0.989    88 N    0.955
                            87 N    0.949
    39   7 N    2.937 --    36 C    1.040    90 N    0.939    89 N    0.892
    40   6 C    3.925 --    44 C    0.977    43 N    0.960    37 C    0.937
                            91 N    0.917
    41   8 C    1.889 --    37 C    1.598    34 N    0.176
    42  16 O    2.114 --    38 C    1.014    45 C    0.989
    43   7 N    3.284 --    46 C    1.137    40 C    0.960    92 N    0.884
                            49 C    0.155
    44   6 C    3.965 --    47 C    0.990    48 C    0.987    40 C    0.977
                            93 N    0.943
    45   6 C    3.920 --    42 O    0.989    94 N    0.970    96 N    0.969
                            95 N    0.965
    46   6 C    3.869 --    49 C    1.715    43 N    1.137     6 C    0.949
    47   6 C    3.955 --    44 C    0.990    97 N    0.978    98 N    0.977
                            99 N    0.969
    48   6 C    3.962 --    50 C    1.022    44 C    0.987   100 N    0.959
                           101 N    0.950
    49   8 C    1.999 --    46 C    1.715    43 N    0.155
    50   6 C    3.961 --    48 C    1.022   103 N    0.973   104 N    0.972
                           102 N    0.972
    51   6 C    3.958 --    52 C    1.005     2 C    0.969   105 N    0.959
                           106 N    0.958
    52   6 C    3.954 --    51 C    1.005    53 C    0.979   108 N    0.963
                           107 N    0.960
    53   6 C    3.932 --    54 N    1.011    52 C    0.979   110 N    0.951
                           109 N    0.948
    54   7 N    3.218 --    55 C    1.095    53 C    1.011   111 N    0.895
                            56 N    0.115
    55   6 C    3.940 --    56 N    1.671    57 N    1.141    54 N    1.095
    56   7 N    2.862 --    55 C    1.671   112 N    0.914    54 N    0.115
                            57 N    0.106
    57   7 N    3.131 --    55 C    1.141   113 N    0.909   114 N    0.908
                            56 N    0.106
    58   6 C    3.940 --     6 C    0.984   116 N    0.969   115 N    0.958
                           117 N    0.950
    59   1 N    0.927 --     1 N    0.897
    60   1 N    0.986 --     2 C    0.935
    61   1 N    0.916 --     5 N    0.880
    62   1 N    0.975 --     6 C    0.925
    63   1 N    0.991 --     8 C    0.937
    64   1 N    0.922 --    10 N    0.862
    65   1 N    0.986 --    11 C    0.937
    66   1 N    0.981 --    11 C    0.950
    67   1 N    0.994 --    13 C    0.964
    68   1 N    0.994 --    13 C    0.958
    69   1 N    0.985 --    14 C    0.932
    70   1 N    0.849 --    26 C    0.624    17 N    0.202
    71   1 N    0.984 --    18 C    0.942
    72   1 N    0.987 --    18 C    0.961
    73   1 N    0.985 --    23 C    0.934
    74   1 N    0.915 --    27 N    0.833
    75   1 N    0.992 --    28 C    0.955
    76   1 N    0.993 --    28 C    0.934
    77   1 N    0.989 --    30 C    0.933
    78   1 N    0.991 --    30 C    0.952
    79   1 N    0.987 --    31 C    0.934
    80   1 N    0.988 --    33 C    0.957
    81   1 N    0.996 --    33 C    0.967
    82   1 N    0.923 --    34 N    0.848
    83   1 N    0.988 --    35 C    0.955
    84   1 N    0.984 --    35 C    0.952
    85   1 N    0.997 --    36 C    0.954
    86   1 N    0.994 --    36 C    0.961
    87   1 N    0.988 --    38 C    0.949
    88   1 N    0.993 --    38 C    0.955
    89   1 N    0.927 --    39 N    0.892
    90   1 N    0.955 --    39 N    0.939
    91   1 N    0.979 --    40 C    0.917
    92   1 N    0.933 --    43 N    0.884
    93   1 N    0.988 --    44 C    0.943
    94   1 N    0.989 --    45 C    0.970
    95   1 N    0.984 --    45 C    0.965
    96   1 N    0.987 --    45 C    0.969
    97   1 N    0.989 --    47 C    0.978
    98   1 N    0.996 --    47 C    0.977
    99   1 N    0.989 --    47 C    0.969
   100   1 N    0.991 --    48 C    0.959
   101   1 N    0.986 --    48 C    0.950
   102   1 N    0.992 --    50 C    0.972
   103   1 N    0.991 --    50 C    0.973
   104   1 N    0.994 --    50 C    0.972
   105   1 N    0.984 --    51 C    0.959
   106   1 N    0.990 --    51 C    0.958
   107   1 N    0.989 --    52 C    0.960
   108   1 N    0.988 --    52 C    0.963
   109   1 N    0.994 --    53 C    0.948
   110   1 N    0.994 --    53 C    0.951
   111   1 N    0.939 --    54 N    0.895
   112   1 N    0.953 --    56 N    0.914
   113   1 N    0.939 --    57 N    0.909
   114   1 N    0.933 --    57 N    0.908
   115   1 N    0.976 --    58 C    0.958
   116   1 N    0.993 --    58 C    0.969
   117   1 N    0.987 --    58 C    0.950
 ---------------------------------------------------------------------------

Topologies differ in total number of bonds
Writing topology from bond orders to xtbtopo.mol

Atomic dipole moments (in atomic units):
---------------------------------------------------------
     #    Z                 x            y            z
---------------------------------------------------------
           total     2.122615    13.205904     2.478973
---------------------------------------------------------
         |total|    13.603187    34.575853 Debye


           -------------------------------------------------
          | TOTAL ENERGY            -3197.366661132538 Eh   |
          | GRADIENT NORM               0.412639856285 Eh/α |
           -------------------------------------------------

------------------------------------------------------------------------
 * finished run on 2026/05/23 at 12:51:52.882     
------------------------------------------------------------------------
 total:
 * wall-time:     0 d,  0 h,  0 min, 37.917 sec
 *  cpu-time:     0 d,  0 h,  1 min, 11.287 sec
 * ratio c/w:     1.880 speedup
 SCF:
 * wall-time:     0 d,  0 h,  0 min, 37.442 sec
 *  cpu-time:     0 d,  0 h,  1 min, 10.790 sec
 * ratio c/w:     1.891 speedup

normal termination of xtb
