      -----------------------------------------------------------      
     |                   =====================                   |     
     |                           x T B                           |     
     |                   =====================                   |     
     |                         S. Grimme                         |     
     |          Mulliken Center for Theoretical Chemistry        |     
     |                    University of Bonn                     |     
      -----------------------------------------------------------      

   * xtb version 6.7.1 (edcfbbe) compiled by 'albert@albert-system' on 2024-07-22

   xtb is free software: you can redistribute it and/or modify it under
   the terms of the GNU Lesser General Public License as published by
   the Free Software Foundation, either version 3 of the License, or
   (at your option) any later version.
   
   xtb is distributed in the hope that it will be useful,
   but WITHOUT ANY WARRANTY; without even the implied warranty of
   MERCHANTABILITY or FITNESS FOR A PARTICULAR PURPOSE.  See the
   GNU Lesser General Public License for more details.
   
   Cite this work as:
   * C. Bannwarth, E. Caldeweyher, S. Ehlert, A. Hansen, P. Pracht,
     J. Seibert, S. Spicher, S. Grimme, WIREs Comput. Mol. Sci., 2020, 11,
     e01493. DOI: 10.1002/wcms.1493
   
   for GFN2-xTB:
   * C. Bannwarth, S. Ehlert and S. Grimme., J. Chem. Theory Comput., 2019,
     15, 1652-1671. DOI: 10.1021/acs.jctc.8b01176
   for GFN1-xTB:
   * S. Grimme, C. Bannwarth, P. Shushkov, J. Chem. Theory Comput., 2017,
     13, 1989-2009. DOI: 10.1021/acs.jctc.7b00118
   for GFN0-xTB:
   * P. Pracht, E. Caldeweyher, S. Ehlert, S. Grimme, ChemRxiv, 2019, preprint.
     DOI: 10.26434/chemrxiv.8326202.v1
   for GFN-FF:
   * S. Spicher and S. Grimme, Angew. Chem. Int. Ed., 2020, 59, 15665-15673.
     DOI: 10.1002/anie.202004239
   
   for ALPB and GBSA implicit solvation:
   * S. Ehlert, M. Stahn, S. Spicher, S. Grimme, J. Chem. Theory Comput.,
     2021, 17, 4250-4261. DOI: 10.1021/acs.jctc.1c00471
   
   for ddCOSMO and CPCM-X implicit solvation:
   * M. Stahn, S. Ehlert, S. Grimme, J. Phys. Chem. A,
     2023, XX, XXXX-XXXX. DOI: 10.1021/acs.jpca.3c04382
   
   for DFT-D4:
   * E. Caldeweyher, C. Bannwarth and S. Grimme, J. Chem. Phys., 2017,
     147, 034112. DOI: 10.1063/1.4993215
   * E. Caldeweyher, S. Ehlert, A. Hansen, H. Neugebauer, S. Spicher,
     C. Bannwarth and S. Grimme, J. Chem. Phys., 2019, 150, 154122.
     DOI: 10.1063/1.5090222
   * E. Caldeweyher, J.-M. Mewes, S. Ehlert and S. Grimme, Phys. Chem. Chem. Phys.
     2020, 22, 8499-8512. DOI: 10.1039/D0CP00502A
   
   for sTDA-xTB:
   * S. Grimme and C. Bannwarth, J. Chem. Phys., 2016, 145, 054103.
     DOI: 10.1063/1.4959605
   
   in the mass-spec context:
   * V. Asgeirsson, C. Bauer and S. Grimme, Chem. Sci., 2017, 8, 4879.
     DOI: 10.1039/c7sc00601b
   * J. Koopman and S. Grimme, ACS Omega 2019, 4, 12, 15120-15133.
     DOI: 10.1021/acsomega.9b02011
   
   for metadynamics refer to:
   * S. Grimme, J. Chem. Theory Comput., 2019, 155, 2847-2862
     DOI: 10.1021/acs.jctc.9b00143
   
   for SPH calculations refer to:
   * S. Spicher and S. Grimme, J. Chem. Theory Comput., 2021, 17, 1701-1714
     DOI: 10.1021/acs.jctc.0c01306
   
   for ONIOM refer to:
   * C. Plett, A. Katbashev, S. Ehlert, S. Grimme, M. Bursch,
     Phys. Chem. Chem. Phys., 2023, 25, 17860-17868. DOI: 10.1039/D3CP02178E
   
   for DIPRO refer to:
   * J. Kohn, N. Gildemeister, S. Grimme, D. Fazzi, A. Hansen,
     J. Chem. Phys., 2023, just accepted.
   
   for PTB refer to:
   * S. Grimme, M. Mueller, A. Hansen, J. Chem. Phys., 2023, 158, 124111.
     DOI: 10.1063/5.0137838
   
   with help from (in alphabetical order)
   P. Atkinson, C. Bannwarth, F. Bohle, G. Brandenburg, E. Caldeweyher
   M. Checinski, S. Dohm, S. Ehlert, S. Ehrlich, I. Gerasimov, C. Hölzer
   A. Katbashev, J. Kohn, J. Koopman, C. Lavigne, S. Lehtola, F. März, M. Müller,
   F. Musil, H. Neugebauer, J. Pisarek, C. Plett, P. Pracht, F. Pultar,
   J. Seibert, P. Shushkov, S. Spicher, M. Stahn, M. Steiner, T. Strunk,
   J. Stückrath, T. Rose, and J. Unsleber
   
 * started run on 2026/05/23 at 12:30:53.967     
   ID    Z sym.   atoms
    1    7 N      1, 5, 10, 17, 27, 34, 39, 43, 54, 56, 57
    2    6 C      2, 3, 6-8, 11-14, 16, 18, 21-23, 28-31, 33, 35-38, 40,
                  44-48, 50-53, 55, 58
    3    8 O      4, 9, 15, 19, 20, 24-26, 32, 41, 49
    4   16 S      42
    5    1 H      59-117

           -------------------------------------------------
          |                Calculation Setup                |
           -------------------------------------------------

          program call               : /home/xchen/software/xtb-6.7.1/xtb-dist/bin/xtb /home/xchen/Test/benchmark/md_sampled/04_7_0231_n2/snap_0029.xyz --charge -2 --gfn 2 --norestart
          coordinate file            : /home/xchen/Test/benchmark/md_sampled/04_7_0231_n2/snap_0029.xyz
          omp threads                :                    48


           -------------------------------------------------
          |                 G F N 2 - x T B                 |
           -------------------------------------------------

        Reference                      10.1021/acs.jctc.8b01176
      * Hamiltonian:
        H0-scaling (s, p, d)           1.850000    2.230000    2.230000
        zeta-weighting                 0.500000
      * Dispersion:
        s8                             2.700000
        a1                             0.520000
        a2                             5.000000
        s9                             5.000000
      * Repulsion:
        kExp                           1.500000    1.000000
        rExp                           1.000000
      * Coulomb:
        alpha                          2.000000
        third order                    shell-resolved
        anisotropic                    true
        a3                             3.000000
        a5                             4.000000
        cn-shift                       1.200000
        cn-exp                         4.000000
        max-rad                        5.000000


          ...................................................
          :                      SETUP                      :
          :.................................................:
          :  # basis functions                 297          :
          :  # atomic orbitals                 296          :
          :  # shells                          176          :
          :  # electrons                       328          :
          :  max. iterations                   250          :
          :  Hamiltonian                  GFN2-xTB          :
          :  restarted?                      false          :
          :  GBSA solvation                  false          :
          :  PC potential                    false          :
          :  electronic temp.          300.0000000     K    :
          :  accuracy                    1.0000000          :
          :  -> integral cutoff          0.2500000E+02      :
          :  -> integral neglect         0.1000000E-07      :
          :  -> SCF convergence          0.1000000E-05 Eh   :
          :  -> wf. convergence          0.1000000E-03 e    :
          :  Broyden damping             0.4000000          :
          :  net charge                         -2          :
          :  unpaired electrons                  0          :
          ...................................................

 iter      E             dE          RMSdq      gap      omega  full diag
   1   -186.9754110 -0.186975E+03  0.422E+00    3.37       0.0  T
   2   -187.4971578 -0.521747E+00  0.218E+00    2.12       1.0  T
   3   -187.5253289 -0.281711E-01  0.120E+00    0.95       1.0  T
   4   -186.0959929  0.142934E+01  0.269E+00    0.34       1.0  T
   5   -187.5338574 -0.143786E+01  0.258E-01    0.36       1.0  T
   6   -187.5369521 -0.309469E-02  0.131E-01    0.30       1.0  T
   7   -187.5368458  0.106315E-03  0.823E-02    0.41       1.0  T
   8   -187.5369287 -0.828756E-04  0.704E-02    0.42       1.0  T
   9   -187.5369674 -0.387233E-04  0.658E-02    0.40       1.0  T
  10   -187.5370279 -0.605624E-04  0.614E-02    0.37       1.0  T
  11   -187.5370863 -0.583908E-04  0.576E-02    0.34       1.0  T
  12   -187.5371692 -0.828574E-04  0.522E-02    0.31       1.0  T
  13   -187.5372731 -0.103906E-03  0.455E-02    0.29       1.0  T
  14   -187.5376354 -0.362327E-03  0.887E-03    0.20       1.0  T
  15   -187.5376358 -0.343461E-06  0.907E-03    0.22       1.0  T
  16   -187.5376507 -0.149038E-04  0.238E-03    0.21       3.9  T
  17   -187.5376516 -0.878904E-06  0.120E-03    0.21       7.7  T
  18   -187.5376517 -0.174871E-06  0.740E-04    0.21      12.5  T
  19   -187.5376518 -0.106880E-06  0.120E-04    0.21      77.1  T

   *** convergence criteria satisfied after 19 iterations ***

         #    Occupation            Energy/Eh            Energy/eV
      -------------------------------------------------------------
         1        2.0000           -0.5981081             -16.2753
       ...           ...                  ...                  ...
       158        2.0000           -0.2024730              -5.5096
       159        2.0000           -0.1927029              -5.2437
       160        2.0000           -0.1883052              -5.1240
       161        2.0000           -0.1792372              -4.8773
       162        2.0000           -0.1559619              -4.2439
       163        2.0000           -0.1444369              -3.9303
       164        1.9645           -0.1333182              -3.6278 (HOMO)
       165        0.0355           -0.1256923              -3.4203 (LUMO)
       166                         -0.1110624              -3.0222
       167                         -0.1014196              -2.7598
       168                         -0.0859812              -2.3397
       169                         -0.0840410              -2.2869
       ...                                ...                  ...
       296                          0.7948992              21.6303
      -------------------------------------------------------------
                  HL-Gap            0.0076259 Eh            0.2075 eV
             Fermi-level           -0.1295052 Eh           -3.5240 eV

 SCC (total)                   0 d,  0 h,  0 min, 27.914 sec
 SCC setup                      ...        0 min,  0.013 sec (  0.046%)
 Dispersion                     ...        0 min,  0.179 sec (  0.641%)
 classical contributions        ...        0 min,  0.007 sec (  0.024%)
 integral evaluation            ...        0 min,  0.484 sec (  1.733%)
 iterations                     ...        0 min, 26.184 sec ( 93.804%)
 molecular gradient             ...        0 min,  1.029 sec (  3.687%)
 printout                       ...        0 min,  0.018 sec (  0.064%)

         :::::::::::::::::::::::::::::::::::::::::::::::::::::
         ::                     SUMMARY                     ::
         :::::::::::::::::::::::::::::::::::::::::::::::::::::
         :: total energy            -185.525821650388 Eh    ::
         :: gradient norm              0.404154879554 Eh/a0 ::
         :: HOMO-LUMO gap              0.207510159605 eV    ::
         ::.................................................::
         :: SCC energy              -187.531415989015 Eh    ::
         :: -> isotropic ES            0.727836190357 Eh    ::
         :: -> anisotropic ES          0.016356554372 Eh    ::
         :: -> anisotropic XC          0.061922589466 Eh    ::
         :: -> dispersion             -0.141051480070 Eh    ::
         :: repulsion energy           2.005594338627 Eh    ::
         :: add. restraining           0.000000000000 Eh    ::
         :: total charge              -2.000000000000 e     ::
         :::::::::::::::::::::::::::::::::::::::::::::::::::::

           -------------------------------------------------
          |                Property Printout                |
           -------------------------------------------------

    * Orbital Energies and Occupations

         #    Occupation            Energy/Eh            Energy/eV
      -------------------------------------------------------------
         1        2.0000           -0.5981081             -16.2753
       ...           ...                  ...                  ...
       152        2.0000           -0.2463367              -6.7032
       153        2.0000           -0.2356477              -6.4123
       154        2.0000           -0.2355732              -6.4103
       155        2.0000           -0.2326040              -6.3295
       156        2.0000           -0.2316264              -6.3029
       157        2.0000           -0.2306062              -6.2751
       158        2.0000           -0.2024730              -5.5096
       159        2.0000           -0.1927029              -5.2437
       160        2.0000           -0.1883052              -5.1240
       161        2.0000           -0.1792372              -4.8773
       162        2.0000           -0.1559619              -4.2439
       163        2.0000           -0.1444369              -3.9303
       164        1.9645           -0.1333182              -3.6278 (HOMO)
       165        0.0355           -0.1256923              -3.4203 (LUMO)
       166                         -0.1110624              -3.0222
       167                         -0.1014196              -2.7598
       168                         -0.0859812              -2.3397
       169                         -0.0840410              -2.2869
       170                         -0.0695687              -1.8931
       171                         -0.0694420              -1.8896
       172                         -0.0613705              -1.6700
       173                         -0.0480630              -1.3079
       174                         -0.0350368              -0.9534
       175                         -0.0108004              -0.2939
       ...                                ...                  ...
       296                          0.7948992              21.6303
      -------------------------------------------------------------
                  HL-Gap            0.0076259 Eh            0.2075 eV
             Fermi-level           -0.1295052 Eh           -3.5240 eV

     #   Z          covCN         q      C6AA      α(0)
     1   7 N        2.687    -0.149    24.231     7.311
     2   6 C        3.799     0.032    20.036     6.373
     3   6 C        2.747     0.295    21.988     7.678
     4   8 O        0.858    -0.417    22.019     6.291
     5   7 N        2.697    -0.207    25.496     7.499
     6   6 C        3.785     0.022    20.222     6.405
     7   6 C        2.756     0.279    22.286     7.731
     8   6 C        3.792     0.017    20.297     6.416
     9   8 O        0.858    -0.450    22.706     6.389
    10   7 N        2.690    -0.183    24.966     7.421
    11   6 C        3.800    -0.057    21.592     6.616
    12   6 C        2.762     0.278    22.303     7.734
    13   6 C        3.759    -0.057    21.648     6.633
    14   6 C        3.852     0.032    20.004     6.361
    15   8 O        0.857    -0.449    22.675     6.384
    16   6 C        2.691     0.350    21.059     7.510
    17   7 N        2.672    -0.251    26.538     7.651
    18   6 C        3.799    -0.084    22.108     6.695
    19   8 O        0.856    -0.565    25.275     6.740
    20   8 O        0.856    -0.619    26.582     6.913
    21   6 C        2.800     0.257    22.679     7.802
    22   6 C        2.693     0.342    21.185     7.533
    23   6 C        3.790     0.034    20.021     6.372
    24   8 O        0.857    -0.505    23.885     6.552
    25   8 O        0.856    -0.514    24.100     6.582
    26   8 O        0.869    -0.621    26.638     6.920
    27   7 N        2.694    -0.204    25.435     7.490
    28   6 C        3.827    -0.077    21.954     6.667
    29   6 C        2.746     0.258    22.650     7.793
    30   6 C        3.789    -0.050    21.478     6.600
    31   6 C        3.770     0.025    20.185     6.403
    32   8 O        0.858    -0.397    21.616     6.233
    33   6 C        3.796    -0.058    21.626     6.622
    34   7 N        2.692    -0.160    24.470     7.347
    35   6 C        3.854    -0.076    21.910     6.657
    36   6 C        3.718     0.032    20.157     6.413
    37   6 C        2.741     0.265    22.528     7.771
    38   6 C        3.785    -0.006    20.705     6.481
    39   7 N        2.629    -0.327    28.429     7.919
    40   6 C        3.782     0.010    20.434     6.439
    41   8 O        0.857    -0.470    23.128     6.448
    42  16 S        1.976    -0.226   150.693    20.661
    43   7 N        2.693    -0.212    25.620     7.517
    44   6 C        3.839    -0.024    20.967     6.514
    45   6 C        3.727    -0.057    21.712     6.653
    46   6 C        2.763     0.257    22.666     7.797
    47   6 C        3.743    -0.106    22.606     6.783
    48   6 C        3.795    -0.072    21.880     6.661
    49   8 O        0.857    -0.429    22.277     6.328
    50   6 C        3.737    -0.113    22.758     6.808
    51   6 C        3.794    -0.068    21.812     6.651
    52   6 C        3.807    -0.074    21.918     6.665
    53   6 C        3.719     0.001    20.684     6.496
    54   7 N        2.685    -0.245    26.393     7.630
    55   6 C        2.730     0.240    22.983     7.849
    56   7 N        1.784    -0.449    32.761     8.477
    57   7 N        2.647    -0.316    28.133     7.878
    58   6 C        3.724    -0.112    22.751     6.811
    59   1 H        0.859     0.189     1.167     1.692
    60   1 H        0.915     0.034     2.527     2.486
    61   1 H        0.861     0.202     1.094     1.638
    62   1 H        0.921     0.060     2.194     2.317
    63   1 H        0.924     0.046     2.368     2.407
    64   1 H        0.861     0.199     1.109     1.650
    65   1 H        0.929     0.077     2.013     2.219
    66   1 H        0.921     0.041     2.439     2.442
    67   1 H        0.893    -0.014     3.323     2.853
    68   1 H        0.913    -0.007     3.185     2.792
    69   1 H        0.926     0.064     2.152     2.294
    70   1 H        0.871     0.272     0.803     1.403
    71   1 H        0.915     0.037     2.485     2.466
    72   1 H        0.926     0.038     2.472     2.459
    73   1 H        0.926     0.042     2.419     2.432
    74   1 H        0.861     0.201     1.101     1.643
    75   1 H        0.926     0.047     2.362     2.403
    76   1 H        0.927     0.076     2.016     2.220
    77   1 H        0.918     0.039     2.465     2.456
    78   1 H        0.920     0.025     2.654     2.548
    79   1 H        0.912     0.035     2.525     2.485
    80   1 H        0.917     0.058     2.221     2.331
    81   1 H        0.913     0.010     2.892     2.660
    82   1 H        0.862     0.198     1.116     1.655
    83   1 H        0.928     0.079     1.993     2.208
    84   1 H        0.926     0.071     2.077     2.254
    85   1 H        0.927     0.055     2.256     2.349
    86   1 H        0.915    -0.025     3.528     2.938
    87   1 H        0.921     0.055     2.260     2.351
    88   1 H        0.924     0.053     2.280     2.361
    89   1 H        0.861     0.143     1.447     1.884
    90   1 H        0.858     0.120     1.625     1.997
    91   1 H        0.924     0.061     2.192     2.315
    92   1 H        0.861     0.178     1.226     1.734
    93   1 H        0.925     0.066     2.134     2.285
    94   1 H        0.929     0.078     1.994     2.208
    95   1 H        0.915     0.044     2.398     2.422
    96   1 H        0.927     0.044     2.396     2.420
    97   1 H        0.928     0.049     2.331     2.388
    98   1 H        0.903     0.028     2.620     2.532
    99   1 H        0.927     0.034     2.526     2.485
   100   1 H        0.928     0.036     2.507     2.476
   101   1 H        0.923     0.027     2.626     2.534
   102   1 H        0.918     0.018     2.765     2.601
   103   1 H        0.926     0.041     2.432     2.438
   104   1 H        0.928     0.070     2.087     2.259
   105   1 H        0.927     0.062     2.176     2.307
   106   1 H        0.924     0.040     2.449     2.447
   107   1 H        0.926     0.063     2.165     2.301
   108   1 H        0.926     0.054     2.274     2.358
   109   1 H        0.924     0.057     2.238     2.339
   110   1 H        0.926     0.066     2.135     2.285
   111   1 H        0.860     0.158     1.350     1.820
   112   1 H        0.861     0.124     1.589     1.975
   113   1 H        0.860     0.162     1.324     1.802
   114   1 H        0.860     0.166     1.297     1.784
   115   1 H        0.921     0.096     1.822     2.111
   116   1 H        0.919     0.030     2.589     2.517
   117   1 H        0.914     0.060     2.205     2.323

 Mol. C6AA /au·bohr⁶  :     136481.032906
 Mol. C8AA /au·bohr⁸  :    3093544.176850
 Mol. α(0) /au        :        551.732919


Wiberg/Mayer (AO) data.
largest (>0.10) Wiberg bond orders for each atom

 ---------------------------------------------------------------------------
     #   Z sym  total        # sym  WBO       # sym  WBO       # sym  WBO
 ---------------------------------------------------------------------------
     1   7 N    3.469 --     7 C    1.281     2 C    0.997    59 H    0.926
                             9 O    0.187
     2   6 C    3.970 --     1 N    0.997    51 C    0.967     3 C    0.944
                            60 H    0.931
     3   6 C    3.953 --     4 O    1.716     5 N    1.205     2 C    0.944
     4   8 O    2.020 --     3 C    1.716     5 N    0.182
     5   7 N    3.368 --     3 C    1.205     6 C    0.970    61 H    0.922
                             4 O    0.182
     6   6 C    3.974 --    46 C    0.992    58 C    0.972     5 N    0.970
                            62 H    0.941
     7   6 C    3.943 --     9 O    1.641     1 N    1.281     8 C    0.937
     8   6 C    3.959 --    10 N    0.978    63 H    0.959    11 C    0.955
                             7 C    0.937
     9   8 O    1.999 --     7 C    1.641     1 N    0.187
    10   7 N    3.428 --    12 C    1.247     8 C    0.978    64 H    0.926
                            15 O    0.191
    11   6 C    3.979 --    13 C    1.007    65 H    0.971    66 H    0.971
                             8 C    0.955
    12   6 C    3.949 --    15 O    1.680    10 N    1.247    14 C    0.948
    13   6 C    3.963 --    11 C    1.007    68 H    0.972    67 H    0.969
                            16 C    0.908
    14   6 C    3.969 --    18 C    0.961    69 H    0.959    17 N    0.956
                            12 C    0.948
    15   8 O    1.990 --    12 C    1.680    10 N    0.191
    16   6 C    3.945 --    19 O    1.560    20 O    1.455    13 C    0.908
    17   7 N    3.343 --    21 C    1.337    14 C    0.956    70 H    0.728
                            24 O    0.180
    18   6 C    3.988 --    72 H    0.976    71 H    0.967    14 C    0.961
                            22 C    0.960
    19   8 O    1.868 --    16 C    1.560    20 O    0.233
    20   8 O    1.752 --    16 C    1.455    19 O    0.233
    21   6 C    3.948 --    24 O    1.592    17 N    1.337    23 C    0.914
    22   6 C    3.945 --    25 O    1.632    26 O    1.317    18 C    0.960
    23   6 C    3.962 --    27 N    0.989    28 C    0.978    73 H    0.953
                            21 C    0.914
    24   8 O    1.951 --    21 C    1.592    17 N    0.180
    25   8 O    1.930 --    22 C    1.632    26 O    0.209
    26   8 O    1.842 --    22 C    1.317    25 O    0.209    70 H    0.165
    27   7 N    3.425 --    29 C    1.247    23 C    0.989    74 H    0.892
                            32 O    0.204
    28   6 C    3.983 --    30 C    0.993    23 C    0.978    75 H    0.969
                            76 H    0.963
    29   6 C    3.950 --    32 O    1.734    27 N    1.247    31 C    0.895
    30   6 C    3.993 --    33 C    1.026    28 C    0.993    78 H    0.974
                            77 H    0.963
    31   6 C    3.957 --    35 C    0.997    34 N    0.980    79 H    0.935
                            29 C    0.895
    32   8 O    2.069 --    29 C    1.734    27 N    0.204
    33   6 C    3.993 --    30 C    1.026    81 H    0.975    36 C    0.973
                            80 H    0.969
    34   7 N    3.487 --    37 C    1.324    31 C    0.980    82 H    0.911
                            41 O    0.194
    35   6 C    3.986 --    38 C    1.007    31 C    0.997    84 H    0.966
                            83 H    0.957
    36   6 C    3.984 --    39 N    1.046    85 H    0.976    33 C    0.973
                            86 H    0.967
    37   6 C    3.953 --    41 O    1.624    34 N    1.324    40 C    0.906
    38   6 C    3.980 --    35 C    1.007    42 S    0.998    88 H    0.974
                            87 H    0.965
    39   7 N    3.036 --    36 C    1.046    90 H    0.963    89 H    0.963
    40   6 C    3.962 --    43 N    1.018    44 C    0.946    91 H    0.942
                            37 C    0.906
    41   8 O    1.962 --    37 C    1.624    34 N    0.194
    42  16 S    2.068 --    38 C    0.998    45 C    0.998
    43   7 N    3.385 --    46 C    1.158    40 C    1.018    92 H    0.922
                            49 O    0.177
    44   6 C    3.988 --    47 C    1.025    48 C    0.997    93 H    0.965
                            40 C    0.946
    45   6 C    3.972 --    42 S    0.998    96 H    0.985    94 H    0.983
                            95 H    0.975
    46   6 C    3.918 --    49 O    1.686    43 N    1.158     6 C    0.992
    47   6 C    3.988 --    44 C    1.025    98 H    0.978    97 H    0.978
                            99 H    0.974
    48   6 C    3.994 --    50 C    1.006    44 C    0.997   100 H    0.983
                           101 H    0.974
    49   8 O    1.990 --    46 C    1.686    43 N    0.177
    50   6 C    3.992 --    48 C    1.006   102 H    0.992   103 H    0.990
                           104 H    0.983
    51   6 C    3.990 --    52 C    1.004   105 H    0.977   106 H    0.975
                             2 C    0.967
    52   6 C    3.988 --    53 C    1.022    51 C    1.004   108 H    0.962
                           107 H    0.961
    53   6 C    3.970 --    52 C    1.022   110 H    0.973   109 H    0.966
                            54 N    0.946
    54   7 N    3.322 --    55 C    1.180    53 C    0.946   111 H    0.942
                            56 N    0.167
    55   6 C    3.961 --    56 N    1.668    54 N    1.180    57 N    1.092
    56   7 N    2.922 --    55 C    1.668   112 H    0.942    54 N    0.167
    57   7 N    3.190 --    55 C    1.092   114 H    0.958   113 H    0.955
    58   6 C    3.980 --   116 H    0.981   117 H    0.978   115 H    0.978
                             6 C    0.972
    59   1 H    0.964 --     1 N    0.926
    60   1 H    0.998 --     2 C    0.931
    61   1 H    0.959 --     5 N    0.922
    62   1 H    0.994 --     6 C    0.941
    63   1 H    0.998 --     8 C    0.959
    64   1 H    0.960 --    10 N    0.926
    65   1 H    0.994 --    11 C    0.971
    66   1 H    0.998 --    11 C    0.971
    67   1 H    0.999 --    13 C    0.969
    68   1 H    1.000 --    13 C    0.972
    69   1 H    0.996 --    14 C    0.959
    70   1 H    0.926 --    17 N    0.728    26 O    0.165
    71   1 H    0.999 --    18 C    0.967
    72   1 H    0.998 --    18 C    0.976
    73   1 H    0.998 --    23 C    0.953
    74   1 H    0.959 --    27 N    0.892
    75   1 H    0.997 --    28 C    0.969
    76   1 H    0.994 --    28 C    0.963
    77   1 H    0.998 --    30 C    0.963
    78   1 H    0.999 --    30 C    0.974
    79   1 H    0.998 --    31 C    0.935
    80   1 H    0.997 --    33 C    0.969
    81   1 H    1.000 --    33 C    0.975
    82   1 H    0.961 --    34 N    0.911
    83   1 H    0.993 --    35 C    0.957
    84   1 H    0.995 --    35 C    0.966
    85   1 H    0.997 --    36 C    0.976
    86   1 H    0.999 --    36 C    0.967
    87   1 H    0.997 --    38 C    0.965
    88   1 H    0.997 --    38 C    0.974
    89   1 H    0.979 --    39 N    0.963
    90   1 H    0.986 --    39 N    0.963
    91   1 H    0.996 --    40 C    0.942
    92   1 H    0.968 --    43 N    0.922
    93   1 H    0.995 --    44 C    0.965
    94   1 H    0.994 --    45 C    0.983
    95   1 H    0.998 --    45 C    0.975
    96   1 H    0.998 --    45 C    0.985
    97   1 H    0.997 --    47 C    0.978
    98   1 H    0.998 --    47 C    0.978
    99   1 H    0.999 --    47 C    0.974
   100   1 H    0.999 --    48 C    0.983
   101   1 H    0.999 --    48 C    0.974
   102   1 H    1.000 --    50 C    0.992
   103   1 H    0.998 --    50 C    0.990
   104   1 H    0.995 --    50 C    0.983
   105   1 H    0.996 --    51 C    0.977
   106   1 H    0.998 --    51 C    0.975
   107   1 H    0.996 --    52 C    0.961
   108   1 H    0.996 --    52 C    0.962
   109   1 H    0.997 --    53 C    0.966
   110   1 H    0.995 --    53 C    0.973
   111   1 H    0.975 --    54 N    0.942
   112   1 H    0.985 --    56 N    0.942
   113   1 H    0.974 --    57 N    0.955
   114   1 H    0.972 --    57 N    0.958
   115   1 H    0.991 --    58 C    0.978
   116   1 H    0.999 --    58 C    0.981
   117   1 H    0.996 --    58 C    0.978
 ---------------------------------------------------------------------------

Topologies differ in total number of bonds
Writing topology from bond orders to xtbtopo.mol

molecular dipole:
                 x           y           z       tot (Debye)
 q only:        2.519      13.752       1.025
   full:        2.556      13.081       1.012      33.976
molecular quadrupole (traceless):
                xx          xy          yy          xz          yz          zz
 q only:       25.759       4.838     -68.711      61.460     -86.731      42.952
  q+dip:       10.848      14.210     -54.686      54.130     -96.784      43.838
   full:       11.373      15.652     -54.206      52.921     -97.026      42.833


           -------------------------------------------------
          | TOTAL ENERGY             -185.525821650388 Eh   |
          | GRADIENT NORM               0.404154879554 Eh/α |
          | HOMO-LUMO GAP               0.207510159605 eV   |
           -------------------------------------------------

------------------------------------------------------------------------
 * finished run on 2026/05/23 at 12:31:22.893     
------------------------------------------------------------------------
 total:
 * wall-time:     0 d,  0 h,  0 min, 28.925 sec
 *  cpu-time:     0 d,  0 h,  0 min, 34.411 sec
 * ratio c/w:     1.190 speedup
 SCF:
 * wall-time:     0 d,  0 h,  0 min, 27.915 sec
 *  cpu-time:     0 d,  0 h,  0 min, 33.246 sec
 * ratio c/w:     1.191 speedup

normal termination of xtb
