      -----------------------------------------------------------      
     |                   =====================                   |     
     |                           x T B                           |     
     |                   =====================                   |     
     |                         S. Grimme                         |     
     |          Mulliken Center for Theoretical Chemistry        |     
     |                    University of Bonn                     |     
      -----------------------------------------------------------      

   * xtb version 6.7.1 (edcfbbe) compiled by 'albert@albert-system' on 2024-07-22

   xtb is free software: you can redistribute it and/or modify it under
   the terms of the GNU Lesser General Public License as published by
   the Free Software Foundation, either version 3 of the License, or
   (at your option) any later version.
   
   xtb is distributed in the hope that it will be useful,
   but WITHOUT ANY WARRANTY; without even the implied warranty of
   MERCHANTABILITY or FITNESS FOR A PARTICULAR PURPOSE.  See the
   GNU Lesser General Public License for more details.
   
   Cite this work as:
   * C. Bannwarth, E. Caldeweyher, S. Ehlert, A. Hansen, P. Pracht,
     J. Seibert, S. Spicher, S. Grimme, WIREs Comput. Mol. Sci., 2020, 11,
     e01493. DOI: 10.1002/wcms.1493
   
   for GFN2-xTB:
   * C. Bannwarth, S. Ehlert and S. Grimme., J. Chem. Theory Comput., 2019,
     15, 1652-1671. DOI: 10.1021/acs.jctc.8b01176
   for GFN1-xTB:
   * S. Grimme, C. Bannwarth, P. Shushkov, J. Chem. Theory Comput., 2017,
     13, 1989-2009. DOI: 10.1021/acs.jctc.7b00118
   for GFN0-xTB:
   * P. Pracht, E. Caldeweyher, S. Ehlert, S. Grimme, ChemRxiv, 2019, preprint.
     DOI: 10.26434/chemrxiv.8326202.v1
   for GFN-FF:
   * S. Spicher and S. Grimme, Angew. Chem. Int. Ed., 2020, 59, 15665-15673.
     DOI: 10.1002/anie.202004239
   
   for ALPB and GBSA implicit solvation:
   * S. Ehlert, M. Stahn, S. Spicher, S. Grimme, J. Chem. Theory Comput.,
     2021, 17, 4250-4261. DOI: 10.1021/acs.jctc.1c00471
   
   for ddCOSMO and CPCM-X implicit solvation:
   * M. Stahn, S. Ehlert, S. Grimme, J. Phys. Chem. A,
     2023, XX, XXXX-XXXX. DOI: 10.1021/acs.jpca.3c04382
   
   for DFT-D4:
   * E. Caldeweyher, C. Bannwarth and S. Grimme, J. Chem. Phys., 2017,
     147, 034112. DOI: 10.1063/1.4993215
   * E. Caldeweyher, S. Ehlert, A. Hansen, H. Neugebauer, S. Spicher,
     C. Bannwarth and S. Grimme, J. Chem. Phys., 2019, 150, 154122.
     DOI: 10.1063/1.5090222
   * E. Caldeweyher, J.-M. Mewes, S. Ehlert and S. Grimme, Phys. Chem. Chem. Phys.
     2020, 22, 8499-8512. DOI: 10.1039/D0CP00502A
   
   for sTDA-xTB:
   * S. Grimme and C. Bannwarth, J. Chem. Phys., 2016, 145, 054103.
     DOI: 10.1063/1.4959605
   
   in the mass-spec context:
   * V. Asgeirsson, C. Bauer and S. Grimme, Chem. Sci., 2017, 8, 4879.
     DOI: 10.1039/c7sc00601b
   * J. Koopman and S. Grimme, ACS Omega 2019, 4, 12, 15120-15133.
     DOI: 10.1021/acsomega.9b02011
   
   for metadynamics refer to:
   * S. Grimme, J. Chem. Theory Comput., 2019, 155, 2847-2862
     DOI: 10.1021/acs.jctc.9b00143
   
   for SPH calculations refer to:
   * S. Spicher and S. Grimme, J. Chem. Theory Comput., 2021, 17, 1701-1714
     DOI: 10.1021/acs.jctc.0c01306
   
   for ONIOM refer to:
   * C. Plett, A. Katbashev, S. Ehlert, S. Grimme, M. Bursch,
     Phys. Chem. Chem. Phys., 2023, 25, 17860-17868. DOI: 10.1039/D3CP02178E
   
   for DIPRO refer to:
   * J. Kohn, N. Gildemeister, S. Grimme, D. Fazzi, A. Hansen,
     J. Chem. Phys., 2023, just accepted.
   
   for PTB refer to:
   * S. Grimme, M. Mueller, A. Hansen, J. Chem. Phys., 2023, 158, 124111.
     DOI: 10.1063/5.0137838
   
   with help from (in alphabetical order)
   P. Atkinson, C. Bannwarth, F. Bohle, G. Brandenburg, E. Caldeweyher
   M. Checinski, S. Dohm, S. Ehlert, S. Ehrlich, I. Gerasimov, C. Hölzer
   A. Katbashev, J. Kohn, J. Koopman, C. Lavigne, S. Lehtola, F. März, M. Müller,
   F. Musil, H. Neugebauer, J. Pisarek, C. Plett, P. Pracht, F. Pultar,
   J. Seibert, P. Shushkov, S. Spicher, M. Stahn, M. Steiner, T. Strunk,
   J. Stückrath, T. Rose, and J. Unsleber
   
 * started run on 2026/05/23 at 12:59:34.451     
   ID    Z sym.   atoms
    1    7 N      1, 5, 10, 17, 23, 25, 28, 34, 41, 46, 50
    2    6 C      2, 3, 6-8, 11-15, 18-21, 24, 26, 27, 29-32, 35-38, 40,
                  42-45, 48, 49, 51-53
    3    8 O      4, 9, 16, 22, 33, 39, 47
    4    1 H      54-110

           -------------------------------------------------
          |                Calculation Setup                |
           -------------------------------------------------

          program call               : /home/xchen/software/xtb-6.7.1/xtb-dist/bin/xtb /home/xchen/Test/benchmark/md_sampled/07_7_0083_0/snap_0193.xyz --charge 0 --gfn 2 --norestart
          coordinate file            : /home/xchen/Test/benchmark/md_sampled/07_7_0083_0/snap_0193.xyz
          omp threads                :                    48


           -------------------------------------------------
          |                 G F N 2 - x T B                 |
           -------------------------------------------------

        Reference                      10.1021/acs.jctc.8b01176
      * Hamiltonian:
        H0-scaling (s, p, d)           1.850000    2.230000    2.230000
        zeta-weighting                 0.500000
      * Dispersion:
        s8                             2.700000
        a1                             0.520000
        a2                             5.000000
        s9                             5.000000
      * Repulsion:
        kExp                           1.500000    1.000000
        rExp                           1.000000
      * Coulomb:
        alpha                          2.000000
        third order                    shell-resolved
        anisotropic                    true
        a3                             3.000000
        a5                             4.000000
        cn-shift                       1.200000
        cn-exp                         4.000000
        max-rad                        5.000000


          ...................................................
          :                      SETUP                      :
          :.................................................:
          :  # basis functions                 269          :
          :  # atomic orbitals                 269          :
          :  # shells                          163          :
          :  # electrons                       294          :
          :  max. iterations                   250          :
          :  Hamiltonian                  GFN2-xTB          :
          :  restarted?                      false          :
          :  GBSA solvation                  false          :
          :  PC potential                    false          :
          :  electronic temp.          300.0000000     K    :
          :  accuracy                    1.0000000          :
          :  -> integral cutoff          0.2500000E+02      :
          :  -> integral neglect         0.1000000E-07      :
          :  -> SCF convergence          0.1000000E-05 Eh   :
          :  -> wf. convergence          0.1000000E-03 e    :
          :  Broyden damping             0.4000000          :
          :  net charge                          0          :
          :  unpaired electrons                  0          :
          ...................................................

 iter      E             dE          RMSdq      gap      omega  full diag
   1   -166.0642064 -0.166064E+03  0.374E+00    3.75       0.0  T
   2   -166.4678062 -0.403600E+00  0.208E+00    3.14       1.0  T
   3   -166.4927987 -0.249925E-01  0.115E+00    3.42       1.0  T
   4   -166.4941614 -0.136275E-02  0.323E-01    3.09       1.0  T
   5   -166.5026649 -0.850347E-02  0.113E-01    3.12       1.0  T
   6   -166.5031291 -0.464224E-03  0.539E-02    3.13       1.0  T
   7   -166.5032127 -0.836248E-04  0.252E-02    3.12       1.0  T
   8   -166.5032252 -0.124943E-04  0.697E-03    3.13       1.4  T
   9   -166.5032264 -0.121672E-05  0.329E-03    3.13       2.9  T
  10   -166.5032267 -0.243090E-06  0.127E-03    3.13       7.5  T
  11   -166.5032267 -0.310120E-07  0.491E-04    3.13      19.4  T
  12   -166.5032267 -0.762245E-08  0.161E-04    3.13      59.1  T

   *** convergence criteria satisfied after 12 iterations ***

         #    Occupation            Energy/Eh            Energy/eV
      -------------------------------------------------------------
         1        2.0000           -0.7281925             -19.8151
       ...           ...                  ...                  ...
       141        2.0000           -0.3840539             -10.4506
       142        2.0000           -0.3781275             -10.2894
       143        2.0000           -0.3726200             -10.1395
       144        2.0000           -0.3713022             -10.1036
       145        2.0000           -0.3653188              -9.9408
       146        2.0000           -0.3614262              -9.8349
       147        2.0000           -0.3582780              -9.7492 (HOMO)
       148                         -0.2433007              -6.6205 (LUMO)
       149                         -0.2405179              -6.5448
       150                         -0.2316790              -6.3043
       151                         -0.2305708              -6.2742
       152                         -0.2201767              -5.9913
       ...                                ...                  ...
       269                          0.7187199              19.5574
      -------------------------------------------------------------
                  HL-Gap            0.1149773 Eh            3.1287 eV
             Fermi-level           -0.3007894 Eh           -8.1849 eV

 SCC (total)                   0 d,  0 h,  0 min, 10.762 sec
 SCC setup                      ...        0 min,  0.024 sec (  0.225%)
 Dispersion                     ...        0 min,  0.105 sec (  0.980%)
 classical contributions        ...        0 min,  0.005 sec (  0.050%)
 integral evaluation            ...        0 min,  0.268 sec (  2.492%)
 iterations                     ...        0 min,  9.853 sec ( 91.552%)
 molecular gradient             ...        0 min,  0.495 sec (  4.598%)
 printout                       ...        0 min,  0.011 sec (  0.102%)

         :::::::::::::::::::::::::::::::::::::::::::::::::::::
         ::                     SUMMARY                     ::
         :::::::::::::::::::::::::::::::::::::::::::::::::::::
         :: total energy            -164.541468168525 Eh    ::
         :: gradient norm              0.419115454759 Eh/a0 ::
         :: HOMO-LUMO gap              3.128690924970 eV    ::
         ::.................................................::
         :: SCC energy              -166.497266818364 Eh    ::
         :: -> isotropic ES            0.301040435021 Eh    ::
         :: -> anisotropic ES          0.016040343174 Eh    ::
         :: -> anisotropic XC          0.069690765447 Eh    ::
         :: -> dispersion             -0.128348062289 Eh    ::
         :: repulsion energy           1.955798649839 Eh    ::
         :: add. restraining           0.000000000000 Eh    ::
         :: total charge              -0.000000000000 e     ::
         :::::::::::::::::::::::::::::::::::::::::::::::::::::

           -------------------------------------------------
          |                Property Printout                |
           -------------------------------------------------

    * Orbital Energies and Occupations

         #    Occupation            Energy/Eh            Energy/eV
      -------------------------------------------------------------
         1        2.0000           -0.7281925             -19.8151
       ...           ...                  ...                  ...
       135        2.0000           -0.4099216             -11.1545
       136        2.0000           -0.4014037             -10.9228
       137        2.0000           -0.3959484             -10.7743
       138        2.0000           -0.3932545             -10.7010
       139        2.0000           -0.3927127             -10.6863
       140        2.0000           -0.3900998             -10.6152
       141        2.0000           -0.3840539             -10.4506
       142        2.0000           -0.3781275             -10.2894
       143        2.0000           -0.3726200             -10.1395
       144        2.0000           -0.3713022             -10.1036
       145        2.0000           -0.3653188              -9.9408
       146        2.0000           -0.3614262              -9.8349
       147        2.0000           -0.3582780              -9.7492 (HOMO)
       148                         -0.2433007              -6.6205 (LUMO)
       149                         -0.2405179              -6.5448
       150                         -0.2316790              -6.3043
       151                         -0.2305708              -6.2742
       152                         -0.2201767              -5.9913
       153                         -0.2109368              -5.7399
       154                         -0.2001033              -5.4451
       155                         -0.1981357              -5.3915
       156                         -0.1580785              -4.3015
       157                         -0.0786591              -2.1404
       158                         -0.0756867              -2.0595
       ...                                ...                  ...
       269                          0.7187199              19.5574
      -------------------------------------------------------------
                  HL-Gap            0.1149773 Eh            3.1287 eV
             Fermi-level           -0.3007894 Eh           -8.1849 eV

     #   Z          covCN         q      C6AA      α(0)
     1   7 N        2.680    -0.171    24.704     7.382
     2   6 C        3.739    -0.030    21.186     6.568
     3   6 C        2.760     0.273    22.384     7.748
     4   8 O        0.858    -0.405    21.786     6.258
     5   7 N        2.686    -0.160    24.461     7.346
     6   6 C        3.780     0.027    20.136     6.393
     7   6 C        2.744     0.261    22.597     7.783
     8   6 C        3.816     0.011    20.375     6.424
     9   8 O        0.856    -0.437    22.443     6.352
    10   7 N        2.758    -0.149    24.226     7.310
    11   6 C        3.809    -0.049    21.439     6.591
    12   6 C        3.778    -0.004    20.678     6.479
    13   6 C        2.759     0.262    22.583     7.782
    14   6 C        3.827    -0.060    21.627     6.617
    15   6 C        3.760     0.013    20.411     6.441
    16   8 O        0.863    -0.400    21.676     6.242
    17   7 N        2.654    -0.231    26.056     7.581
    18   6 C        3.800    -0.067    21.781     6.645
    19   6 C        2.747     0.272    22.406     7.751
    20   6 C        3.233     0.081    25.401     8.180
    21   6 C        3.831     0.019    20.235     6.400
    22   8 O        0.856    -0.433    22.359     6.340
    23   7 N        1.879    -0.257    27.528     7.778
    24   6 C        2.975    -0.036    28.895     8.817
    25   7 N        2.731    -0.098    23.161     7.148
    26   6 C        3.875    -0.059    21.581     6.605
    27   6 C        3.148     0.087    25.808     8.310
    28   7 N        2.790    -0.125    23.708     7.232
    29   6 C        3.806     0.001    20.560     6.455
    30   6 C        2.782     0.258    22.662     7.797
    31   6 C        3.792    -0.057    21.606     6.620
    32   6 C        3.790     0.025    20.158     6.394
    33   8 O        0.863    -0.486    23.482     6.497
    34   7 N        2.697    -0.186    25.028     7.430
    35   6 C        3.807    -0.081    22.032     6.682
    36   6 C        2.744     0.260    22.609     7.786
    37   6 C        3.777    -0.049    21.472     6.602
    38   6 C        3.788     0.028    20.118     6.388
    39   8 O        0.856    -0.417    22.028     6.293
    40   6 C        3.793    -0.080    22.034     6.685
    41   7 N        2.698    -0.195    25.227     7.460
    42   6 C        3.791    -0.066    21.775     6.646
    43   6 C        3.717    -0.000    20.709     6.501
    44   6 C        2.736     0.265    22.527     7.771
    45   6 C        3.787    -0.072    21.889     6.664
    46   7 N        2.623    -0.355    29.150     8.019
    47   8 O        0.867    -0.416    22.005     6.290
    48   6 C        3.771    -0.059    21.661     6.632
    49   6 C        3.722     0.026    20.242     6.425
    50   7 N        2.631    -0.345    28.895     7.983
    51   6 C        3.841    -0.022    20.928     6.508
    52   6 C        3.740    -0.108    22.640     6.789
    53   6 C        3.745    -0.116    22.785     6.809
    54   1 H        0.852     0.192     1.147     1.678
    55   1 H        0.928     0.103     1.754     2.071
    56   1 H        0.923     0.052     2.291     2.367
    57   1 H        0.860     0.175     1.240     1.744
    58   1 H        0.921     0.046     2.372     2.409
    59   1 H        0.929     0.077     2.006     2.215
    60   1 H        0.925     0.051     2.307     2.375
    61   1 H        0.896     0.050     2.325     2.386
    62   1 H        0.929     0.074     2.044     2.236
    63   1 H        0.929     0.069     2.093     2.262
    64   1 H        0.916     0.037     2.494     2.470
    65   1 H        0.927     0.056     2.246     2.344
    66   1 H        0.928     0.063     2.166     2.302
    67   1 H        0.849     0.224     0.992     1.561
    68   1 H        0.918     0.073     2.052     2.240
    69   1 H        0.919     0.077     2.010     2.218
    70   1 H        0.925     0.087     1.909     2.161
    71   1 H        0.921     0.031     2.576     2.510
    72   1 H        0.918     0.053     2.289     2.366
    73   1 H        0.927     0.059     2.210     2.325
    74   1 H        0.929     0.043     2.402     2.424
    75   1 H        0.862     0.163     1.316     1.797
    76   1 H        0.922     0.049     2.339     2.392
    77   1 H        0.928     0.069     2.099     2.265
    78   1 H        0.925     0.061     2.188     2.313
    79   1 H        0.915     0.048     2.352     2.399
    80   1 H        0.929     0.068     2.106     2.269
    81   1 H        0.853     0.186     1.179     1.701
    82   1 H        0.927     0.053     2.276     2.359
    83   1 H        0.929     0.066     2.125     2.280
    84   1 H        0.918     0.038     2.480     2.463
    85   1 H        0.911     0.020     2.732     2.585
    86   1 H        0.925     0.084     1.937     2.176
    87   1 H        0.930     0.048     2.349     2.397
    88   1 H        0.919     0.033     2.539     2.492
    89   1 H        0.862     0.178     1.225     1.734
    90   1 H        0.920     0.052     2.296     2.370
    91   1 H        0.923     0.045     2.379     2.412
    92   1 H        0.920     0.040     2.443     2.445
    93   1 H        0.925     0.033     2.537     2.491
    94   1 H        0.927     0.052     2.289     2.366
    95   1 H        0.925     0.039     2.458     2.452
    96   1 H        0.861     0.146     1.428     1.872
    97   1 H        0.858     0.136     1.502     1.920
    98   1 H        0.926     0.055     2.257     2.349
    99   1 H        0.895     0.003     3.006     2.713
   100   1 H        0.917     0.033     2.547     2.496
   101   1 H        0.921     0.014     2.830     2.631
   102   1 H        0.860     0.142     1.456     1.891
   103   1 H        0.861     0.139     1.478     1.904
   104   1 H        0.926     0.037     2.487     2.466
   105   1 H        0.928     0.066     2.129     2.281
   106   1 H        0.922     0.053     2.281     2.362
   107   1 H        0.918     0.032     2.561     2.503
   108   1 H        0.920     0.038     2.482     2.464
   109   1 H        0.922     0.036     2.504     2.475
   110   1 H        0.928     0.058     2.221     2.330

 Mol. C6AA /au·bohr⁶  :     111944.111589
 Mol. C8AA /au·bohr⁸  :    2482456.223725
 Mol. α(0) /au        :        500.102939


Wiberg/Mayer (AO) data.
largest (>0.10) Wiberg bond orders for each atom

 ---------------------------------------------------------------------------
     #   Z sym  total        # sym  WBO       # sym  WBO       # sym  WBO
 ---------------------------------------------------------------------------
     1   7 N    3.425 --     7 C    1.256     2 C    0.996    54 H    0.907
                             9 O    0.193
     2   6 C    3.974 --     1 N    0.996     3 C    0.959    56 H    0.956
                            55 H    0.947
     3   6 C    3.951 --     4 O    1.684     5 N    1.227     2 C    0.959
     4   8 O    2.060 --     3 C    1.684     5 N    0.181
     5   7 N    3.438 --     3 C    1.227     6 C    1.015    57 H    0.939
                             4 O    0.181
     6   6 C    3.962 --     5 N    1.015    51 C    0.967    58 H    0.947
                            44 C    0.887
     7   6 C    3.950 --     9 O    1.680     1 N    1.256     8 C    0.936
     8   6 C    3.971 --    11 C    0.979    10 N    0.975    59 H    0.944
                             7 C    0.936
     9   8 O    1.994 --     7 C    1.680     1 N    0.193
    10   7 N    3.424 --    13 C    1.201     8 C    0.975    12 C    0.958
                            16 O    0.185
    11   6 C    3.989 --    14 C    1.018     8 C    0.979    60 H    0.973
                            61 H    0.965
    12   6 C    3.968 --    14 C    0.998    63 H    0.978    62 H    0.975
                            10 N    0.958
    13   6 C    3.947 --    16 O    1.736    10 N    1.201    15 C    0.936
    14   6 C    3.996 --    11 C    1.018    12 C    0.998    64 H    0.977
                            65 H    0.976
    15   6 C    3.959 --    18 C    0.965    66 H    0.955    17 N    0.945
                            13 C    0.936
    16   8 O    2.049 --    13 C    1.736    10 N    0.185
    17   7 N    3.368 --    19 C    1.243    15 C    0.945    67 H    0.880
                            22 O    0.192
    18   6 C    3.986 --    20 C    1.037    69 H    0.966    15 C    0.965
                            68 H    0.946
    19   6 C    3.950 --    22 O    1.692    17 N    1.243    21 C    0.951
    20   6 C    3.979 --    24 C    1.561    23 N    1.260    18 C    1.037
    21   6 C    3.960 --    26 C    0.995    19 C    0.951    70 H    0.940
                            25 N    0.923
    22   8 O    2.000 --    19 C    1.692    17 N    0.192
    23   7 N    3.030 --    27 C    1.563    20 C    1.260    28 N    0.115
    24   6 C    3.919 --    20 C    1.561    28 N    1.165    71 H    0.968
                            27 C    0.126
    25   7 N    3.513 --    30 C    1.345    29 C    0.956    21 C    0.923
                            33 O    0.193
    26   6 C    3.987 --    31 C    0.997    21 C    0.995    72 H    0.971
                            73 H    0.968
    27   6 C    3.958 --    23 N    1.563    28 N    1.256    74 H    0.967
                            24 C    0.126
    28   7 N    3.559 --    27 C    1.256    24 C    1.165    75 H    0.952
                            23 N    0.115
    29   6 C    3.959 --    31 C    0.997    77 H    0.971    76 H    0.970
                            25 N    0.956
    30   6 C    3.946 --    33 O    1.601    25 N    1.345    32 C    0.896
    31   6 C    3.987 --    29 C    0.997    26 C    0.997    78 H    0.979
                            79 H    0.975
    32   6 C    3.968 --    34 N    1.006    35 C    0.970    80 H    0.959
                            30 C    0.896
    33   8 O    1.953 --    30 C    1.601    25 N    0.193
    34   7 N    3.419 --    36 C    1.209    32 C    1.006    81 H    0.917
                            39 O    0.191
    35   6 C    3.987 --    37 C    1.003    83 H    0.977    82 H    0.974
                            32 C    0.970
    36   6 C    3.942 --    39 O    1.708    34 N    1.209    38 C    0.921
    37   6 C    3.992 --    40 C    1.011    35 C    1.003    85 H    0.978
                            84 H    0.974
    38   6 C    3.958 --    42 C    0.983    41 N    0.983    86 H    0.947
                            36 C    0.921
    39   8 O    2.029 --    36 C    1.708    34 N    0.191
    40   6 C    3.994 --    37 C    1.011    43 C    0.982    87 H    0.982
                            88 H    0.966
    41   7 N    3.406 --    44 C    1.223    38 C    0.983    89 H    0.935
                            47 O    0.177
    42   6 C    3.985 --    45 C    0.991    38 C    0.983    90 H    0.972
                            91 H    0.972
    43   6 C    3.977 --    46 N    1.016    40 C    0.982    93 H    0.982
                            92 H    0.976
    44   6 C    3.936 --    47 O    1.730    41 N    1.223     6 C    0.887
    45   6 C    3.986 --    48 C    0.999    42 C    0.991    95 H    0.978
                            94 H    0.974
    46   7 N    3.000 --    43 C    1.016    96 H    0.971    97 H    0.970
    47   8 O    2.045 --    44 C    1.730    41 N    0.177
    48   6 C    3.991 --    49 C    1.016    45 C    0.999    98 H    0.973
                            99 H    0.972
    49   6 C    3.986 --    48 C    1.016    50 N    1.016   100 H    0.970
                           101 H    0.965
    50   7 N    2.987 --    49 C    1.016   103 H    0.965   102 H    0.959
    51   6 C    3.989 --    52 C    1.003    53 C    1.002   104 H    0.968
                             6 C    0.967
    52   6 C    3.991 --    51 C    1.003   107 H    0.987   105 H    0.986
                           106 H    0.981
    53   6 C    3.984 --    51 C    1.002   110 H    0.985   109 H    0.984
                           108 H    0.983
    54   1 H    0.963 --     1 N    0.907
    55   1 H    0.989 --     2 C    0.947
    56   1 H    0.997 --     2 C    0.956
    57   1 H    0.969 --     5 N    0.939
    58   1 H    0.998 --     6 C    0.947
    59   1 H    0.994 --     8 C    0.944
    60   1 H    0.997 --    11 C    0.973
    61   1 H    0.996 --    11 C    0.965
    62   1 H    0.994 --    12 C    0.975
    63   1 H    0.995 --    12 C    0.978
    64   1 H    0.999 --    14 C    0.977
    65   1 H    0.996 --    14 C    0.976
    66   1 H    0.996 --    15 C    0.955
    67   1 H    0.950 --    17 N    0.880
    68   1 H    0.994 --    18 C    0.946
    69   1 H    0.994 --    18 C    0.966
    70   1 H    0.992 --    21 C    0.940
    71   1 H    0.999 --    24 C    0.968
    72   1 H    0.997 --    26 C    0.971
    73   1 H    0.996 --    26 C    0.968
    74   1 H    0.998 --    27 C    0.967
    75   1 H    0.973 --    28 N    0.952
    76   1 H    0.998 --    29 C    0.970
    77   1 H    0.995 --    29 C    0.971
    78   1 H    0.996 --    31 C    0.979
    79   1 H    0.996 --    31 C    0.975
    80   1 H    0.995 --    32 C    0.959
    81   1 H    0.965 --    34 N    0.917
    82   1 H    0.997 --    35 C    0.974
    83   1 H    0.996 --    35 C    0.977
    84   1 H    0.998 --    37 C    0.974
    85   1 H    1.000 --    37 C    0.978
    86   1 H    0.993 --    38 C    0.947
    87   1 H    0.998 --    40 C    0.982
    88   1 H    0.999 --    40 C    0.966
    89   1 H    0.968 --    41 N    0.935
    90   1 H    0.996 --    42 C    0.972
    91   1 H    0.998 --    42 C    0.972
    92   1 H    0.998 --    43 C    0.976
    93   1 H    0.999 --    43 C    0.982
    94   1 H    0.997 --    45 C    0.974
    95   1 H    0.998 --    45 C    0.978
    96   1 H    0.979 --    46 N    0.971
    97   1 H    0.982 --    46 N    0.970
    98   1 H    0.997 --    48 C    0.973
    99   1 H    1.000 --    48 C    0.972
   100   1 H    0.999 --    49 C    0.970
   101   1 H    1.000 --    49 C    0.965
   102   1 H    0.980 --    50 N    0.959
   103   1 H    0.981 --    50 N    0.965
   104   1 H    0.998 --    51 C    0.968
   105   1 H    0.996 --    52 C    0.986
   106   1 H    0.997 --    52 C    0.981
   107   1 H    0.999 --    52 C    0.987
   108   1 H    0.998 --    53 C    0.983
   109   1 H    0.999 --    53 C    0.984
   110   1 H    0.997 --    53 C    0.985
 ---------------------------------------------------------------------------

Topologies differ in total number of bonds
Writing topology from bond orders to xtbtopo.mol

molecular dipole:
                 x           y           z       tot (Debye)
 q only:       -0.454      -3.127       0.010
   full:       -0.313      -3.018      -0.480       7.808
molecular quadrupole (traceless):
                xx          xy          yy          xz          yz          zz
 q only:       28.154      -1.580       8.177      -4.600       3.342     -36.331
  q+dip:       33.819      -3.689       7.454      -1.823       0.412     -41.273
   full:       35.005      -5.016       7.614      -2.232       2.539     -42.619


           -------------------------------------------------
          | TOTAL ENERGY             -164.541468168525 Eh   |
          | GRADIENT NORM               0.419115454759 Eh/α |
          | HOMO-LUMO GAP               3.128690924970 eV   |
           -------------------------------------------------

------------------------------------------------------------------------
 * finished run on 2026/05/23 at 12:59:45.858     
------------------------------------------------------------------------
 total:
 * wall-time:     0 d,  0 h,  0 min, 11.406 sec
 *  cpu-time:     0 d,  0 h,  0 min, 25.204 sec
 * ratio c/w:     2.210 speedup
 SCF:
 * wall-time:     0 d,  0 h,  0 min, 10.788 sec
 *  cpu-time:     0 d,  0 h,  0 min, 24.139 sec
 * ratio c/w:     2.238 speedup

normal termination of xtb
