114
pH=7.90 total_charge=0 partial_charge_sum=+0.000000 method=gasteiger energy=-590.16428050
N  -3.28133675 -1.04341676  0.70173281
C  -3.39342875 -2.16106435  1.60141617
C  -2.26297185 -3.12070714  1.48585437
O  -1.96234904 -3.83155563  2.48909398
N  -1.51763866 -3.14042466  0.34420056
C  -0.53463298 -4.20210828  0.27182705
C  -2.28477648 -0.06203045  0.65736186
C  -2.56580147  1.22149212 -0.10853847
O  -1.16438626 -0.26374223  1.10098565
N  -1.64189432  2.17347279  0.46836992
C  -2.06154700  0.89263450 -1.49640345
C  -1.97416822  3.30798446  1.16839665
C  -2.02564597  2.11534555 -2.41730020
C  -0.72738006  4.19316499  1.50998132
O  -3.14450406  3.66914846  1.31361416
C  -1.15052904  2.19526131 -3.47165607
C  -3.05893739  3.08057223 -2.24886771
N   0.46189586  3.62420532  0.95405281
C  -0.84770821  5.62697490  1.06174007
C  -1.08536506  3.32572454 -4.21269110
C  -2.91805729  4.24107559 -3.03211762
C   1.24293257  2.65084848  1.62928592
C   0.32243296  6.55535691  1.46736703
C  -1.93253059  4.37711181 -4.03928491
C   2.24784084  1.79789376  0.87346539
O   0.95285936  2.30166531  2.73970567
C   0.66940193  6.37084480  2.88717450
C   0.12925842  8.10753988  1.16955344
N   2.02602422  0.38282125  1.02798722
C   2.17917998  2.08926376 -0.66902770
C   2.40306335 -0.37022404  2.06364726
C   3.06336936  1.08972835 -1.46225973
C   2.39010301 -1.83074562  1.55475535
O   2.83062652 -0.05182050  3.16727494
C   2.80371947  0.92658422 -2.81101719
C   4.34531123  0.83264587 -0.98887974
N   1.01060059 -2.42179416  1.22319627
C   3.37393053 -2.14162969  0.36986063
C   3.64457963  0.14823190 -3.60301366
C   5.22672946 -0.03264244 -1.77293110
C   0.77749605 -3.72181227  0.87397498
C   4.86528904 -2.16693700  0.78650906
C   4.87536811 -0.27828818 -3.07633952
O   1.60816749 -4.63837804  1.10733286
N   5.77292672 -2.93361196  0.08340494
C   5.48915356 -1.48063232  1.79274541
C   6.99201371 -2.64000280  0.51443498
N   6.86781267 -1.74512225  1.59526749
C  -4.84789417 -2.86533498  1.58223454
C  -5.31803548 -3.36411738  0.18596037
C  -5.02963831 -3.90972032  2.73092655
C  -6.56127790 -4.10202274  2.90111114
C  -0.28967686 -4.62935447 -1.21689583
C  -1.51723071 -5.15830533 -1.98868538
C   0.33426159 -3.38271353 -1.92906182
C   0.90496236 -3.57121158 -3.32255886
H  -4.00698819 -0.76312082 -0.00257013
H  -3.29229307 -1.76107177  2.61706207
H  -1.82616474 -2.45520311 -0.28646482
H  -1.05603383 -4.96030416  0.82777411
H  -3.68361677  1.42334796  0.00826671
H  -0.73719993  1.79162546  0.44660610
H  -0.91378358  0.59357869 -1.36496468
H  -2.49821994  0.11543971 -2.06542972
H  -0.64693887  4.16603125  2.64236247
H  -0.45564238  1.43759331 -3.71494464
H  -3.76068239  3.19849035 -1.44531439
H   0.74605877  3.85888157 -0.01197297
H  -1.00579875  5.75619741  0.02441604
H  -1.83092837  6.15584834  1.42310075
H  -0.49440430  3.42069467 -5.13945794
H  -3.67938456  5.00059313 -2.91777278
H   1.18326702  5.98727080  1.05908681
H  -1.90359822  5.20577177 -4.70208815
H   3.22272048  2.15682211  1.27962869
H   1.23568894  5.42825973  2.82023476
H   1.40577293  7.04629660  3.28962558
H  -0.19475961  6.51576920  3.50087518
H   0.99923690  8.67657263  1.35000745
H  -0.14856431  8.30743560  0.09685613
H  -0.63087661  8.46274452  1.78709369
H   1.95200329 -0.08670527  0.11059734
H   2.50998860  3.09450261 -0.83783664
H   1.12026630  2.16681586 -0.87957383
H   2.73189458 -2.38197536  2.46959449
H   1.87518943  1.28825275 -3.20608735
H   4.72061968  1.08436708  0.00996254
H   0.31234132 -1.70832174  1.12250993
H   3.09576594 -3.18950198 -0.06180613
H   3.29571954 -1.41991509 -0.40697510
H   3.54812414 -0.02509840 -4.70366293
H   6.29729683 -0.22205740 -1.46462874
H   5.53587758 -0.80158517 -3.69624414
H   5.05961773 -0.83232770  2.54459710
H   7.86697861 -3.01790304  0.14656581
H   7.63680366 -1.26191828  2.02433609
H  -5.60361845 -2.13833429  1.93392638
H  -4.54304472 -4.09087326 -0.20611148
H  -6.05226599 -4.09921508  0.45470923
H  -5.59521751 -2.62301059 -0.53146331
H  -4.71894120 -4.88659460  2.35234274
H  -4.67467680 -3.69771622  3.74698821
H  -7.07174355 -3.17128875  3.13936752
H  -6.80098622 -4.89417760  3.57554293
H  -6.96946375 -4.44205836  2.04509153
H   0.56674823 -5.40438296 -1.05375413
H  -1.80288226 -6.12046945 -1.47454260
H  -1.15768008 -5.40118396 -3.00717324
H  -2.37410073 -4.43181105 -2.00460655
H   1.15259109 -3.08851827 -1.34265376
H  -0.46263172 -2.61810985 -1.71709230
H   0.14370627 -4.03548855 -4.00015406
H   1.13396768 -2.71283261 -3.91492386
H   1.82029618 -4.18347168 -3.39196764
