114
pH=7.90 total_charge=0 partial_charge_sum=+0.000000 method=gasteiger energy=-590.38303050
N  -3.26465118 -0.66569289  0.82414106
C  -3.08300463 -1.89010661  1.68685358
C  -2.07303207 -2.93092197  1.25705490
O  -1.87442801 -3.84031100  2.02023049
N  -1.39739208 -2.79742043  0.10626798
C  -0.22423480 -3.79614190 -0.11030890
C  -2.25527189  0.16698481  0.47950396
C  -2.64971869  1.34741978 -0.37072414
O  -1.10283325  0.01657777  0.81273928
N  -1.84553253  2.50594649  0.04900477
C  -2.50773896  0.81425021 -1.86260707
C  -2.14233310  2.99431893  1.29147106
C  -2.56511830  1.94296086 -2.88039999
C  -0.99960327  3.91078158  1.80505447
O  -3.15305778  2.90872731  1.92138953
C  -1.36624596  2.17668890 -3.49738448
C  -3.68333672  2.75564278 -3.05657359
N   0.30200642  3.46413803  1.36327111
C  -1.33215952  5.49591936  1.53848137
C  -1.25882217  3.20423209 -4.39817096
C  -3.50496060  3.86915349 -3.81394782
C   0.68478966  2.21119618  1.78326854
C  -0.28740436  6.49226718  2.22634580
C  -2.29977175  4.12578098 -4.47754950
C   2.03700218  1.75163295  1.15155701
O   0.08720203  1.62499928  2.62399022
C  -0.00821021  6.15914660  3.63924715
C  -0.63110903  8.02506002  1.99696904
N   2.06326234  0.31876899  0.93929748
C   2.35122455  2.48240321 -0.12992461
C   2.82683585 -0.52462214  1.74107310
C   3.16546688  1.58821127 -1.05893996
C   2.70852515 -2.04647201  1.43592978
O   3.55707485 -0.22649544  2.66070664
C   2.48805624  0.83265268 -1.95651537
C   4.53651377  1.41471077 -0.81534215
N   1.41647229 -2.21614492  0.87112818
C   3.76754065 -2.39951894  0.36947300
C   3.23933303 -0.21741033 -2.65702572
C   5.26168126  0.47711577 -1.53143137
C   0.97810602 -3.56734084  0.72106710
C   5.23155893 -2.43810749  0.80832514
C   4.55445783 -0.34794429 -2.42748149
O   1.78497146 -4.45653922  0.96228316
N   6.19524011 -2.72057138 -0.11492284
C   5.75163415 -2.43738791  2.07206900
C   7.32912661 -2.67413228  0.62277501
N   7.03657452 -2.47912007  1.91910150
C  -4.60278135 -2.49859186  1.59274697
C  -4.85975629 -2.95970406  0.22687676
C  -4.74933094 -3.65327625  2.65055916
C  -5.94514170 -4.56243286  2.33753951
C   0.13924662 -3.98435687 -1.57496379
C  -1.01233052 -4.81191897 -2.26793386
C   0.44254166 -2.71131094 -2.41849728
C   1.36975895 -3.16239714 -3.59837895
H  -4.21379348 -0.29884756  0.81650805
H  -2.69217063 -1.55854825  2.68033530
H  -1.52125643 -1.89056675 -0.32918032
H  -0.59940727 -4.78051913  0.29310032
H  -3.63250395  1.55467498  0.02662190
H  -0.83473114  2.54932202 -0.24122026
H  -1.49966864  0.36790326 -1.82062003
H  -3.29817682  0.09063958 -1.99651183
H  -1.16087196  3.78042606  2.90053081
H  -0.65335434  1.37926206 -3.46018630
H  -4.64935678  2.72785758 -2.61091785
H   0.80328428  3.94200280  0.57621694
H  -1.18106824  5.65837693  0.42021841
H  -2.36074771  5.64944582  1.85773214
H  -0.42665174  3.49812839 -4.93484482
H  -4.29271879  4.60346696 -4.05027729
H   0.67772115  6.29065701  1.73244829
H  -2.14856263  5.08123355 -4.94929003
H   2.75305020  2.12407410  1.87445943
H   0.76869650  5.41139317  3.86472351
H   0.10716710  6.98835451  4.39827547
H  -0.87205878  5.64364107  4.24708940
H   0.29453644  8.61256197  2.09278619
H  -1.04631419  8.08163820  1.03223988
H  -1.38716928  8.34424798  2.65972617
H   1.68884252  0.05687228  0.04633630
H   2.76132392  3.47911866 -0.16375116
H   1.34999953  2.58587744 -0.64551805
H   2.80752277 -2.51280533  2.46097586
H   1.38267752  0.95340064 -2.26098022
H   4.96307380  2.06622209 -0.03125037
H   0.74957950 -1.44528212  1.01168756
H   3.67818325 -3.42505996 -0.01710132
H   3.51733858 -1.78036279 -0.41337963
H   2.70708193 -0.83222505 -3.42071070
H   6.32361925  0.42621710 -1.56408680
H   5.01084519 -1.25476883 -2.85126298
H   5.21431631 -2.00910519  2.96320454
H   8.40850905 -2.65275675  0.22854933
H   7.70415050 -2.10675928  2.60363231
H  -5.23660160 -1.72564885  1.93376584
H  -4.70122245 -4.11484395  0.28480501
H  -5.91744658 -2.84277231  0.02146570
H  -4.21838809 -2.61384923 -0.56766277
H  -3.78739144 -4.10153224  2.77125378
H  -4.96456952 -3.29484156  3.63502512
H  -6.74620243 -3.99963351  1.99773554
H  -6.20860684 -5.10041383  3.28568871
H  -5.84238618 -5.25904216  1.53430256
H   1.05449694 -4.59050471 -1.72618494
H  -1.26358155 -5.64706745 -1.74195880
H  -0.76499888 -5.04067340 -3.33228275
H  -2.02039663 -4.22266963 -2.43440671
H   1.06447334 -2.12018832 -1.72652198
H  -0.54289889 -2.16714713 -2.60392315
H   0.86779800 -3.96641653 -4.23124944
H   1.55329177 -2.27002169 -4.19022426
H   2.20631659 -3.68357631 -3.14586293
