114
pH=7.90 total_charge=0 partial_charge_sum=+0.000000 method=gasteiger energy=-590.45334300
N  -3.24851333 -1.04884962  0.53911145
C  -3.34422013 -2.18780685  1.60220455
C  -2.20458454 -3.17798354  1.44302687
O  -1.96486739 -3.97396210  2.31084374
N  -1.46666014 -3.15912318  0.30996806
C  -0.40461465 -4.18383692  0.23847237
C  -2.22907225 -0.14299893  0.57775266
C  -2.57972175  1.16406349 -0.07707463
O  -1.09946811 -0.40546708  1.01587666
N  -1.77795735  2.21583673  0.53118175
C  -2.13129400  0.95678131 -1.55584476
C  -1.99606880  3.41229042  1.10852507
C  -2.13828196  2.17373292 -2.45829719
C  -0.78844553  4.26494650  1.59835956
O  -3.10608460  3.90100314  1.20521567
C  -1.24670095  2.11481134 -3.49875571
C  -3.10945896  3.17774748 -2.45637546
N   0.44535027  3.67202830  1.21049047
C  -0.80818559  5.64441187  1.16112901
C  -1.14747489  3.17937805 -4.37748867
C  -2.89091244  4.30239505 -3.28118893
C   1.02960569  2.54829043  1.84440522
C   0.33385439  6.54014986  1.67525893
C  -1.94502954  4.29671114 -4.25813898
C   2.10471887  1.73261645  0.93810365
O   0.61154553  2.15538551  2.89529032
C   0.70242515  6.50566563  3.07746881
C  -0.31242135  7.85680476  1.19314233
N   1.81456972  0.32749940  0.98600775
C   2.18766295  2.13830178 -0.52039798
C   2.38022151 -0.45820985  1.97359890
C   3.24387827  1.34024188 -1.38798325
C   2.42116385 -2.04024736  1.70726246
O   3.00430375  0.01528847  2.90078985
C   2.87565128  0.92708277 -2.69054219
C   4.43431804  0.82641324 -0.89561300
N   1.13325183 -2.53717780  1.16829674
C   3.42643171 -2.31518184  0.57718962
C   3.63581815  0.02757188 -3.45554684
C   5.24627407 -0.08380091 -1.63316074
C   0.90777063 -3.80514480  0.91285240
C   4.89541124 -2.15298676  0.81892451
C   4.91527309 -0.32707493 -2.97732369
O   1.80906169 -4.63245255  1.11675780
N   5.82230016 -2.72453990 -0.02863581
C   5.49832544 -1.47335281  1.82752168
C   6.97071977 -2.45983665  0.52229948
N   6.81621743 -1.69612281  1.61076160
C  -4.79573131 -2.73669753  1.51886122
C  -5.20816679 -3.19715392  0.06976665
C  -5.05310493 -3.96922320  2.46590414
C  -6.41258984 -4.09064124  3.08027007
C  -0.24481887 -4.40698619 -1.28183647
C  -1.45446957 -5.03519596 -1.78996287
C   0.13908421 -3.17207275 -2.13692001
C   1.08192274 -3.70599369 -3.36344189
H  -4.06564861 -0.53344407  0.39827787
H  -3.29221007 -1.73190087  2.55903446
H  -1.47277225 -2.44996630 -0.42817132
H  -0.59267251 -5.11446929  0.81306697
H  -3.58510409  1.58043835  0.06654941
H  -0.79361324  2.11145029  0.34126061
H  -1.04784322  0.72733535 -1.46009640
H  -2.71251722 -0.01083657 -1.99751835
H  -0.73362724  4.23306820  2.76655090
H  -0.53721287  1.25934997 -3.55704126
H  -3.77478676  3.04738704 -1.61748463
H   0.75682670  3.73901554  0.26103467
H  -0.64567707  5.72907706  0.05932985
H  -1.86767933  6.02012151  1.37808835
H  -0.45460302  3.06563084 -5.20670323
H  -3.57066516  5.13835183 -3.26099765
H   1.15481188  6.38010620  0.95734560
H  -1.98309848  5.07711721 -5.04582833
H   3.10658824  1.73078716  1.48808538
H   1.16956032  5.47480061  3.18493953
H   1.36207548  7.36495739  3.15815532
H  -0.06024151  6.59248262  3.88437788
H   0.29671849  8.80535830  1.40067616
H  -0.62015804  7.81498456  0.14529885
H  -1.31406504  7.83996622  1.66588845
H   1.20843011 -0.10018152  0.34335300
H   2.25053526  3.24677173 -0.58564842
H   1.16203347  2.01083678 -1.03555323
H   2.74394306 -2.52132814  2.65621470
H   1.97788070  1.27315180 -3.17099689
H   4.68678119  0.93279066  0.24635446
H   0.21378431 -1.97775822  1.17529301
H   3.16345070 -3.34056766  0.39794119
H   3.10742971 -1.72891951 -0.24312001
H   3.21889692 -0.32219209 -4.40398511
H   6.15495588 -0.58179892 -1.21775586
H   5.52363221 -0.94412887 -3.56343373
H   5.05509207 -1.00900509  2.69771515
H   7.89601924 -2.64199311  0.16589599
H   7.64908365 -1.45204502  2.12513835
H  -5.47390696 -1.86602353  1.81780019
H  -4.35577416 -3.66769571 -0.39251823
H  -5.98991967 -3.87325199 -0.12692043
H  -5.40915454 -2.31442387 -0.62815655
H  -4.58650036 -4.92933089  2.06289889
H  -4.15585444 -3.81020887  3.10109718
H  -6.78895376 -3.24842318  3.72905621
H  -6.64719603 -4.91908696  3.77541025
H  -7.06101848 -4.19781480  2.18762442
H   0.64396301 -5.08518454 -1.40860987
H  -1.67816427 -5.98617281 -1.42845304
H  -1.53926317 -5.02044857 -2.86347210
H  -2.28726835 -4.40729450 -1.46258274
H   0.77529033 -2.38111521 -1.58580821
H  -0.72200552 -2.66290750 -2.49471624
H   0.73607494 -4.42992930 -4.13728517
H   1.53295554 -2.86948225 -3.85713008
H   1.86915236 -4.26407717 -2.79977072
