114
pH=7.90 total_charge=0 partial_charge_sum=+0.000000 method=gasteiger energy=-589.91428050
N  -3.26210311 -0.69878747  0.79416138
C  -3.23525936 -2.00601660  1.58529685
C  -2.09733622 -3.03566791  1.29298908
O  -1.90769870 -3.84616578  2.15259565
N  -1.46295575 -3.04175787  0.07492229
C  -0.39836240 -3.93907267  0.02488197
C  -2.22989151  0.09035192  0.47481827
C  -2.60767737  1.38227224 -0.23696937
O  -1.09971731 -0.21416141  0.81096721
N  -1.68110067  2.48334826 -0.02917830
C  -2.58250400  0.92386728 -1.82370578
C  -2.04643182  3.23540175  1.12270458
C  -2.51714740  1.98494868 -2.88164003
C  -1.00159628  4.03167270  1.77194485
O  -3.16853188  3.34237586  1.52477973
C  -1.31332154  2.23975985 -3.61753472
C  -3.49608283  2.94470474 -2.89038166
N   0.37159975  3.65659628  1.43455507
C  -1.26976377  5.45943664  1.55578346
C  -1.10588647  3.37411043 -4.33273349
C  -3.31197270  4.06933782 -3.70605601
C   0.69204042  2.33534059  1.70769069
C  -0.18026340  6.49731820  2.03014076
C  -2.14744869  4.31783588 -4.42651852
C   1.99125447  1.81712992  1.26071361
O  -0.01628361  1.71020657  2.44903590
C   0.27857206  6.27632976  3.53826907
C  -0.78040034  7.80758237  1.79858599
N   1.99457093  0.34574728  1.20598137
C   2.38605135  2.45123227 -0.15663498
C   2.86381337 -0.53016440  1.82895701
C   3.19707089  1.58227129 -1.17290052
C   2.79779533 -2.05713036  1.55951696
O   3.71199434 -0.23564193  2.66319393
C   2.59196734  0.77301180 -2.19921268
C   4.50399495  1.32282557 -0.85898525
N   1.36457645 -2.41987788  1.07945619
C   3.78795486 -2.52953729  0.37484021
C   3.26485763 -0.16104801 -2.93095473
C   5.14549331  0.24616546 -1.49722481
C   0.97177910 -3.67576818  0.82498285
C   5.16427753 -2.48277056  0.80714371
C   4.62316037 -0.44135137 -2.55850455
O   1.59539776 -4.73573940  0.91866706
N   6.23156696 -2.55494551 -0.10779812
C   5.64853615 -2.30136622  2.04480327
C   7.32872326 -2.39680783  0.54405107
N   7.11710818 -2.23114250  1.83563047
C  -4.67141121 -2.51831777  1.57238491
C  -5.02617262 -3.03063395  0.16257627
C  -4.93047924 -3.60589566  2.62031107
C  -6.16238500 -4.45026079  2.60527493
C   0.08398988 -4.25407182 -1.46020131
C  -1.07640008 -4.94906860 -2.21440250
C   0.57740809 -2.92796028 -2.08763497
C   1.16189172 -3.19259295 -3.45633261
H  -4.14339205 -0.36682907  0.96519958
H  -3.04687085 -1.75518521  2.64444539
H  -1.39391307 -2.26447516 -0.49613430
H  -0.73952427 -4.89482315  0.49118743
H  -3.65816478  1.70256710 -0.00144364
H  -0.70935574  2.37317679 -0.18585635
H  -1.71951081  0.37012173 -2.10340265
H  -3.30948588  0.08585346 -2.04435947
H  -1.10560053  3.71765541  2.84202043
H  -0.54360000  1.52193200 -3.66887767
H  -4.41961897  2.81767211 -2.34441339
H   1.03547975  4.34487718  1.18763221
H  -1.42424340  5.62673074  0.53912085
H  -2.28826629  5.57430278  2.01357519
H  -0.15306664  3.53770518 -4.81674018
H  -4.05427571  4.84405475 -3.82705929
H   0.62737297  6.45682756  1.26346372
H  -1.99721138  5.36029037 -4.81723616
H   2.69691765  1.95815044  2.02686549
H   0.96445430  5.42285032  3.58955322
H   0.83029815  6.98062248  4.13764870
H  -0.69135902  6.04320219  3.93862004
H  -0.05014365  8.69653849  1.65294715
H  -1.28357613  7.76375483  0.74549253
H  -1.61953432  8.09290652  2.56449933
H   1.15276103  0.01435875  0.80671430
H   3.01498316  3.36196326  0.02113883
H   1.52704373  2.75039418 -0.74877938
H   3.13554673 -2.64251206  2.46695717
H   1.57073785  1.00277962 -2.52965718
H   5.00904973  1.80651984 -0.06779622
H   0.58261429 -2.03754643  1.50992220
H   3.39016895 -3.51427177  0.22862160
H   3.67479942 -1.85665932 -0.50273047
H   2.68747401 -0.67584392 -3.70636557
H   6.11870101  0.00778259 -1.17748970
H   5.23914222 -1.32551141 -2.89258741
H   5.32274994 -2.06758080  3.06903656
H   8.27571910 -2.37891640  0.00282198
H   7.76334896 -2.53990629  2.59885715
H  -5.28498158 -1.55112673  1.67379711
H  -4.52268013 -3.95792669 -0.18439829
H  -6.09035215 -3.23987352  0.11767550
H  -4.66876813 -2.45879511 -0.74336292
H  -4.08851614 -4.31655761  2.50917346
H  -4.76388625 -3.05409651  3.58427760
H  -7.03419360 -3.70986380  2.91024247
H  -6.18599786 -5.24517098  3.39408976
H  -6.49531959 -4.87897791  1.62376893
H   0.84964131 -5.05275845 -1.37538535
H  -1.15420010 -6.00685249 -1.85628046
H  -0.78462449 -4.95250256 -3.24943619
H  -2.00736661 -4.57881221 -1.97660335
H   1.34895692 -2.50312829 -1.35633213
H  -0.16642388 -2.11387335 -2.10959788
H   0.69370355 -3.95925517 -4.08025950
H   1.50031184 -2.32504904 -3.99460779
H   2.11253199 -3.54790054 -3.19015178
