114
pH=7.90 total_charge=0 partial_charge_sum=+0.000000 method=gasteiger energy=-589.87521800
N  -3.20346216 -1.01087241  0.64621240
C  -3.40250841 -2.03848602  1.74062702
C  -2.23683895 -3.04898858  1.93653861
O  -1.89182689 -3.54880488  2.98871581
N  -1.64455792 -3.21595151  0.71320040
C  -0.45754814 -4.19926360  0.57466558
C  -2.17944317 -0.16160746  0.70128725
C  -2.37085534  1.11434561 -0.17871160
O  -1.31732416 -0.17938397  1.56097660
N  -1.29610869  1.98616551  0.18878015
C  -2.35253530  0.85163276 -1.79159320
C  -1.70823704  3.22721608  0.79862018
C  -2.34951354  2.16122920 -2.45876565
C  -0.58405792  4.01711100  1.28494101
O  -2.90521019  3.37482736  1.11628334
C  -1.32261212  2.48105249 -3.36244137
C  -3.35788580  3.07681187 -2.29520345
N   0.62763543  3.46849490  0.85117630
C  -0.81701246  5.56757877  0.97300010
C  -1.25347793  3.68450956 -4.03512413
C  -3.34138901  4.30415342 -2.93190072
C   1.47213986  2.64133508  1.59397581
C   0.37325287  6.50561966  1.55268483
C  -2.26659349  4.63644836 -3.70874648
C   2.33597948  1.85141021  0.69000444
O   1.50031474  2.53265755  2.81661172
C   0.56989307  6.40175697  3.05945938
C   0.08968919  7.88285482  1.17377660
N   1.68815154  0.50613312  0.90052475
C   2.48082602  2.33435260 -0.77567446
C   2.41366446 -0.30125522  1.72519140
C   3.24327017  1.42437895 -1.58598503
C   2.34190685 -1.82639743  1.47483065
O   3.20409437  0.17838097  2.52060269
C   2.88287552  1.03959014 -2.92201884
C   4.49935245  0.92265257 -1.20932120
N   1.00685463 -2.35045025  1.15360311
C   3.29244455 -2.13074155  0.24695484
C   3.59773617  0.22976912 -3.61651290
C   5.26282364  0.08648649 -1.98447902
C   0.84709392 -3.73213855  1.17809493
C   4.74579631 -2.31215662  0.60053916
C   4.82776586 -0.24515120 -3.25314962
O   1.71877960 -4.48838557  1.42476705
N   5.58389169 -3.28558927  0.06490086
C   5.55409067 -1.63135569  1.48676048
C   6.79348825 -3.08188865  0.47059328
N   6.81327356 -1.97145375  1.26374043
C  -4.68282760 -2.83727282  1.52392841
C  -4.97233734 -3.79423952  0.30328206
C  -5.07158633 -3.67739164  2.80421135
C  -6.48066573 -4.30054309  2.85986827
C  -0.44531568 -4.63041750 -0.94142968
C  -1.78088386 -5.03557020 -1.54260765
C   0.32662667 -3.55411791 -1.72756474
C   0.26407666 -3.76839577 -3.27186876
H  -4.04287278 -0.90663771  0.06954763
H  -3.61061403 -1.42244377  2.61584867
H  -1.96481456 -2.78265012 -0.15115848
H  -0.54290761 -5.15380779  1.20565987
H  -3.29619989  1.57935407  0.06336168
H  -0.34282563  1.71209303  0.31359816
H  -1.48820401  0.32317194 -2.01670210
H  -3.26754467  0.31849126 -2.02133010
H  -0.61053626  3.87414671  2.33222042
H  -0.50977115  1.73321220 -3.54101987
H  -4.13924320  3.00334684 -1.54481862
H   0.86274063  3.46344800 -0.09353346
H  -0.89707316  5.72654237 -0.15117369
H  -1.75827338  5.85589066  1.50657846
H  -0.49641051  4.05964404 -4.75386044
H  -4.05901057  5.08510582 -2.82847052
H   1.30192471  6.05226898  1.12959582
H  -2.31220690  5.54937930 -4.18376995
H   3.33271390  1.73544756  1.09207194
H   1.25081505  5.58041538  3.52717557
H   1.21291666  7.29049853  3.20226595
H  -0.32871110  6.41779670  3.68596918
H   0.91459883  8.55424964  1.19090968
H  -0.02748011  7.86060225  0.12026547
H  -0.74942596  8.32552700  1.62637575
H   1.19218022  0.16047822  0.15761040
H   3.04092701  3.29891739 -0.71025100
H   1.48942362  2.42709556 -1.30961775
H   2.68855669 -2.34516105  2.28608298
H   1.91727111  1.44225540 -3.27770804
H   4.80553853  1.21762320 -0.17244533
H   0.24588211 -1.84728960  1.48689594
H   2.87011869 -3.03681017 -0.27983608
H   3.22786279 -1.28610526 -0.48913337
H   3.22923308  0.00244947 -4.69040115
H   6.21336591 -0.39611162 -1.57349206
H   5.48758966 -0.84301187 -3.85762905
H   5.27960507 -0.94368801  2.27380419
H   7.58976483 -3.65795862  0.22463526
H   7.64911939 -1.60569661  1.68309628
H  -5.57491379 -2.06479811  1.57754135
H  -4.11658776 -4.50749642  0.22363559
H  -5.93619852 -4.23964243  0.33935567
H  -4.98134688 -3.42725647 -0.71589426
H  -4.24753432 -4.27850718  3.06944884
H  -5.06054410 -2.96259771  3.71640897
H  -7.28109624 -3.57663434  2.57460869
H  -6.76943232 -4.74752378  3.92352471
H  -6.70383056 -5.24309860  2.24381838
H   0.03381924 -5.61982062 -0.75913076
H  -2.46881197 -5.48600406 -0.87966030
H  -1.56850832 -5.76259211 -2.34950120
H  -2.25654852 -4.15642635 -1.92695582
H   1.36982000 -3.31659594 -1.51168411
H  -0.11312773 -2.63317064 -1.43208576
H  -0.79620084 -3.89094083 -3.64253130
H   0.68136456 -3.01003665 -3.91149059
H   0.85157740 -4.68524309 -3.53618289
