114
pH=7.90 total_charge=0 partial_charge_sum=+0.000000 method=gasteiger energy=-590.85178050
N  -2.86498259 -0.81185165  0.85390013
C  -2.89992596 -2.01002299  1.77206423
C  -1.73680942 -3.04186192  1.51391669
O  -1.38708534 -3.78094680  2.42064418
N  -1.17674766 -3.03255027  0.19419938
C  -0.10617951 -3.96678152 -0.11451080
C  -1.94026052  0.05347250  0.46767712
C  -2.38624072  1.21119723 -0.49762728
O  -0.73513075 -0.15994049  0.66295629
N  -1.79154245  2.46979682 -0.13140534
C  -1.91516737  0.80325930 -1.87011443
C  -2.11109169  3.17529808  1.13178430
C  -2.12995334  1.92756442 -2.89169165
C  -1.16548247  4.17465657  1.72149934
O  -3.03349559  2.73167476  1.73522544
C  -1.08965033  2.76678751 -3.31150818
C  -3.42365918  2.16026912 -3.35549389
N   0.20603493  3.75906220  1.66016272
C  -1.32310317  5.54807816  1.06152996
C  -1.46279941  3.68497661 -4.31057211
C  -3.86977737  3.19625313 -4.19709357
C   0.74055954  2.68234333  2.29539488
C  -0.41054054  6.62971478  1.69870488
C  -2.77577118  3.95044542 -4.65567748
C   1.90892579  1.99239961  1.44788725
O   0.39577404  2.20892047  3.34191304
C  -0.61469425  6.64084415  3.16546729
C  -0.71864264  8.01881800  1.09876351
N   1.79323421  0.51633498  1.61119646
C   1.80655289  2.23232675 -0.06095290
C   2.80426275 -0.29237995  1.97493340
C   2.76533542  1.46217546 -0.90341134
C   2.72281190 -1.76320319  1.53102218
O   3.82181607  0.14779209  2.47111419
C   2.35683372  0.74100747 -2.06366946
C   4.07489374  1.51286081 -0.54490023
N   1.45399351 -2.22752362  1.01183067
C   3.89108240 -1.83755903  0.46396952
C   3.20630973  0.14613954 -2.96868669
C   5.00804014  0.98115355 -1.42226183
C   1.25107661 -3.53479338  0.56720578
C   5.08856412 -2.62052865  0.86781643
C   4.58001770  0.25152792 -2.59260117
O   2.13895345 -4.33129597  0.57803862
N   6.30276834 -2.64138220  0.10078564
C   5.27956184 -3.22328614  2.05254039
C   7.10495871 -3.33396409  0.90456665
N   6.55986058 -3.71173376  2.09182920
C  -4.36778464 -2.56325392  1.61159547
C  -4.53261498 -3.24738681  0.32074676
C  -4.79569657 -3.35485729  2.91062185
C  -5.80827530 -4.47354387  2.74340363
C   0.07656500 -4.21402432 -1.56500713
C  -1.12340169 -4.97089502 -2.13031181
C   0.44198398 -3.05870608 -2.46471324
C   1.44112079 -3.62435451 -3.52145961
H  -3.81164932 -0.70917769  0.49633191
H  -2.68618750 -1.72028948  2.80675973
H  -1.67774140 -2.58418478 -0.48918739
H  -0.37591715 -4.91697273  0.37895589
H  -3.45606092  1.46042811 -0.54091038
H  -0.97358415  2.78067227 -0.63470679
H  -0.80057730  0.68355352 -1.90167160
H  -2.55948512 -0.10854272 -2.07475540
H  -1.52048315  4.19076760  2.80849526
H  -0.01414406  2.62868079 -3.09214341
H  -4.10321100  1.42670050 -2.88445587
H   0.81429396  4.05700644  0.89412479
H  -0.95838317  5.41306185  0.02197871
H  -2.35040846  5.87076926  1.18332770
H  -0.67263989  4.25275382 -4.82965305
H  -4.97850314  3.35980394 -4.48944075
H   0.62998604  6.48529458  1.37842891
H  -2.98493453  4.73913666 -5.39158959
H   2.87359455  2.31860479  1.94913837
H  -0.54961837  5.61361045  3.52036408
H   0.22018470  7.08325075  3.69985849
H  -1.58311119  6.94260396  3.54801954
H   0.12798285  8.71501536  0.99792649
H  -1.23202209  7.93248467  0.14404859
H  -1.44755182  8.72053607  1.60487509
H   0.81572579  0.20404725  1.61047632
H   1.94764086  3.27810899 -0.43000160
H   0.83281098  1.84062030 -0.36727084
H   2.92266123 -2.42068669  2.33326975
H   1.28945878  0.56827187 -2.15034723
H   4.31895070  1.89601342  0.41327877
H   0.77299761 -1.55586586  0.81992039
H   3.46577628 -2.32371637 -0.36128434
H   4.33224386 -0.96855389  0.04435216
H   2.93672622 -0.36094686 -3.83666110
H   6.04899859  0.98728300 -1.17027513
H   5.38597960 -0.33192239 -3.12943015
H   4.56087387 -3.55644957  2.83324088
H   8.18881338 -3.57969448  0.66317807
H   6.80569823 -4.54473671  2.62625291
H  -5.04423628 -1.67336669  1.59189310
H  -4.41560866 -4.27059846  0.58891064
H  -5.56334514 -3.11236440  0.05369456
H  -3.78448956 -3.03895506 -0.37621271
H  -3.87108190 -3.63078696  3.26622426
H  -5.14142234 -2.59943506  3.58353406
H  -6.71015881 -4.04019582  2.28772736
H  -6.07401647 -4.90411131  3.72400818
H  -5.59450822 -5.32495596  2.07057778
H   0.76728479 -5.02716758 -1.55853181
H  -1.18296987 -5.97289894 -1.66922448
H  -1.11823280 -5.31369926 -3.20807055
H  -2.06954882 -4.52152330 -1.88580214
H   0.89788483 -2.23597984 -2.03209901
H  -0.32427206 -2.65454891 -3.08796028
H   1.01593137 -4.45672663 -4.22230487
H   1.90790986 -2.92389637 -4.27880247
H   2.24282529 -4.15586723 -3.05497022
