114
pH=7.90 total_charge=0 partial_charge_sum=+0.000000 method=gasteiger energy=-589.90646800
N  -3.52524851 -0.90493404  0.64561760
C  -3.49271040 -1.94647543  1.80646998
C  -2.29553483 -2.92545136  1.88807343
O  -2.07446665 -3.59419920  2.81991946
N  -1.56278322 -3.10167817  0.72998415
C  -0.53379514 -4.11412507  0.63620780
C  -2.48088759 -0.02247242  0.78342688
C  -2.37603772  1.22747221  0.02325931
O  -1.63974640 -0.34939104  1.60572088
N  -1.26766565  2.00043867  0.55825438
C  -2.35449028  0.98321730 -1.51825666
C  -1.59976173  3.28139985  0.90471415
C  -2.37899311  2.22606921 -2.29122977
C  -0.46886648  4.17029749  1.30444360
O  -2.78898340  3.68288359  0.90820747
C  -1.37274798  2.59902413 -3.11456237
C  -3.51565204  2.98694750 -2.18256057
N   0.92400874  3.74209613  0.89359797
C  -0.82724325  5.64238222  0.83718290
C  -1.33686852  3.81213001 -3.76301333
C  -3.58226042  4.27343006 -2.88598714
C   1.47522173  2.62276341  1.43685901
C   0.16160746  6.64010640  1.44341021
C  -2.51901699  4.58837799 -3.66693560
C   2.48832171  1.92177452  0.55233019
O   1.15641887  2.09409414  2.53970572
C   0.18929204  6.71183614  3.02373858
C  -0.12658667  7.97130308  0.82245990
N   2.12855875  0.48274420  0.57910120
C   2.75097513  2.34339932 -0.89166909
C   2.67041362 -0.26176732  1.63073860
C   3.52621392  1.39086514 -1.81818162
C   2.50450244 -1.77941597  1.50512240
O   3.49211480  0.12256200  2.45553334
C   2.91077324  0.73943225 -2.84093526
C   4.73014410  0.91311028 -1.37684693
N   1.03664530 -2.22039103  1.25479599
C   3.41998441 -2.32283024  0.43490395
C   3.58087913 -0.25710383 -3.59283413
C   5.29212617 -0.13997523 -2.05463152
C   0.79120723 -3.60176479  1.17728927
C   4.87319460 -2.31356172  0.62928541
C   4.80582485 -0.70363744 -3.20526648
O   1.71717380 -4.39398318  1.39300793
N   5.62530418 -3.28811509  0.02095106
C   5.68753894 -1.51152920  1.33133283
C   6.82036584 -3.20022121  0.44669362
N   6.91175745 -2.15506077  1.27105219
C  -4.82372155 -2.60404748  1.62033389
C  -4.82916096 -3.42130972  0.34327828
C  -5.07456463 -3.66738152  2.75090918
C  -6.38198793 -4.54543370  2.65954534
C  -0.34000780 -4.62284227 -0.83860090
C  -1.56712461 -5.37681620 -1.16014590
C   0.02158339 -3.43668425 -1.76897056
C   0.15949354 -3.98204793 -3.22354296
H  -4.02218259 -1.00636180 -0.22326984
H  -3.57761998 -1.35087600  2.65489113
H  -1.80184455 -2.66166788 -0.22225359
H  -0.71173864 -4.97436442  1.30048103
H  -3.27711627  1.78522775  0.27090269
H  -0.70980567  1.40805836  1.16115437
H  -1.41960660  0.41866601 -1.60896398
H  -3.18246827  0.17525960 -1.67044224
H  -0.42968505  4.14211533  2.39456019
H  -0.48160755  1.97969742 -3.07210874
H  -4.35575868  2.57781056 -1.55515007
H   1.40625338  4.25936863  0.15580840
H  -0.97380632  5.60698540 -0.27834476
H  -1.81033059  5.67997340  1.17998153
H  -0.47679647  4.06472305 -4.28829646
H  -4.48809498  4.86850009 -2.84059241
H   1.12825972  6.10765471  1.05708865
H  -2.54659418  5.44292407 -4.30376963
H   3.43031146  1.89070673  1.07868139
H   0.32781898  5.64319112  3.54255848
H   1.13168377  7.19306239  3.37104111
H  -0.54309531  7.34915173  3.45337481
H   0.45861676  8.79695470  1.18993300
H  -0.03485150  7.99180165 -0.22538398
H  -1.10081921  8.29006706  1.09010941
H   1.26202336  0.15508843  0.36480685
H   3.27888164  3.32993604 -0.90848057
H   1.72774907  2.52070409 -1.27404544
H   2.74669688 -2.19578465  2.47420067
H   1.95853725  0.97925491 -3.25379206
H   5.25968738  1.17094654 -0.40620598
H   0.37836133 -1.46067680  1.48222496
H   3.15194770 -3.38335755  0.27393055
H   3.01671280 -1.91141926 -0.46022301
H   3.18181716 -0.61608258 -4.58219967
H   6.18622231 -0.68196752 -1.60042030
H   5.36876988 -1.39153214 -3.82394299
H   5.36475135 -0.70054298  2.01946376
H   7.64360757 -3.90288335  0.09003225
H   7.68209020 -1.97992319  1.81835905
H  -5.67710365 -1.94220274  1.59395834
H  -4.25084762 -4.37071380  0.44880955
H  -5.77941046 -3.84164159  0.10702641
H  -4.47562457 -3.02848469 -0.61279119
H  -4.16026359 -4.24981333  2.78276128
H  -5.17286057 -3.04466595  3.76645794
H  -6.94273656 -4.19541275  1.81629380
H  -7.01898859 -4.53878812  3.56068002
H  -6.09588182 -5.64821407  2.41716485
H   0.40584618 -5.35305528 -0.86598183
H  -1.78991196 -6.17182462 -0.49928606
H  -1.25302407 -5.87263703 -2.17611630
H  -2.37993745 -4.89379509 -1.64426496
H   1.07387885 -3.22346662 -1.51762841
H  -0.64370078 -2.62701329 -1.72982536
H  -0.83885214 -4.28912472 -3.57416374
H   0.57824606 -3.26284390 -3.93875616
H   0.66698750 -4.95583762 -3.29720916
