114
pH=7.90 total_charge=0 partial_charge_sum=+0.000000 method=gasteiger energy=-594.43771800
N  -3.25121720 -0.79768399  0.62073448 -0.34225141
C  -3.19361110 -1.87676870  1.61627140  0.11027114
C  -1.86799441 -2.60981202  1.56050554  0.24301344
O  -1.35933361 -3.03247026  2.63454616 -0.27269229
N  -1.21722699 -2.87973275  0.30693185 -0.34225268
C  -0.24771520 -3.97600051  0.17131288  0.11027114
C  -2.34329582  0.31159502  0.64137725  0.24308214
C  -2.47711864  1.41407196 -0.38221381  0.11175765
O  -1.41442130  0.34529399  1.49242988 -0.27269065
N  -1.68819500  2.59285899  0.00966566 -0.34219488
C  -2.03659089  0.87578501 -1.76024799  0.00167168
C  -1.90557720  3.29315653  1.24435854  0.24274746
C  -2.20529308  1.89895837 -2.85388861 -0.04544281
C  -0.87466468  4.26114336  1.77185765  0.10797921
O  -2.97576958  3.11908792  1.88771212 -0.27270427
C  -1.09085864  2.58422738 -3.36783890 -0.05895111
C  -3.48239470  2.18170981 -3.36497020 -0.05895111
N   0.47784823  3.78672998  1.44489726 -0.34250029
C  -1.13521468  5.66219984  1.17678714 -0.02135014
C  -1.25431108  3.53560973 -4.37901923 -0.06199274
C  -3.64093998  3.13124143 -4.37826990 -0.06199274
C   0.98189648  2.53987735  1.95029234  0.24307347
C  -0.24791408  6.77612899  1.78695063 -0.04466451
C  -2.52770145  3.80679154 -4.88551180 -0.06224871
C   2.04488383  1.75465911  1.20088471  0.11175770
O   0.56342977  2.11444270  3.06192871 -0.27269082
C  -0.64179209  7.09506971  3.23775540 -0.06268219
C  -0.34734128  8.04784805  0.93365774 -0.06268219
N   1.99672933  0.34314353  1.61171856 -0.34218354
C   1.84496863  1.85325251 -0.33233752  0.00167168
C   3.13081029 -0.52931592  1.51709191  0.24314551
C   2.90750963  1.13155117 -1.12226463 -0.04544281
C   2.94694270 -2.03253092  1.38595988  0.11332025
O   4.28849869 -0.04300931  1.60924287 -0.27268949
C   2.56851656  0.03690346 -1.93641308 -0.05895111
C   4.24195550  1.56979456 -1.08317971 -0.05895111
N   1.65781245 -2.35106403  0.75341575 -0.34212372
C   4.08319417 -2.68472555  0.56449012  0.02063095
C   3.55321052 -0.62048079 -2.67914593 -0.06199274
C   5.22567993  0.90183831 -1.81875532 -0.06199274
C   1.04774894 -3.64695759  0.87709389  0.24301562
C   5.37881459 -2.73721323  1.31971636  0.06067665
C   4.88186886 -0.19282765 -2.61499134 -0.06224871
O   1.60170101 -4.53811490  1.57662989 -0.27269227
N   6.46573402 -2.00322044  1.00533046 -0.24192954
C   5.64394115 -3.51945713  2.42157683  0.02363101
C   7.37681694 -2.36046594  1.93545176  0.09225697
N   6.90601745 -3.27596561  2.80374015 -0.35090330
C  -4.40382731 -2.84507525  1.46130451 -0.01502635
C  -4.33180726 -3.67229808  0.16187812 -0.06003759
C  -4.54454542 -3.76069763  2.70258139 -0.05109903
C  -5.87155361 -4.52350329  2.73294479 -0.06503680
C  -0.02359336 -4.40117971 -1.31140232 -0.01502635
C  -1.33929134 -4.92110264 -1.92259848 -0.06003759
C   0.61956365 -3.29049710 -2.18396255 -0.05109903
C   0.86425130 -3.72470375 -3.62991877 -0.06503680
H  -4.02866045 -0.77646245 -0.07716837  0.16389223
H  -3.27415896 -1.39467438  2.61705967  0.06350405
H  -1.56729976 -2.38700542 -0.54208031  0.16389221
H  -0.67823208 -4.86370862  0.68949671  0.06350405
H  -3.54856739  1.70790511 -0.43909774  0.06357285
H  -0.94228184  2.95308937 -0.62409280  0.16389362
H  -0.98160242  0.53055327 -1.71315189  0.03426233
H  -2.64417044 -0.01781287 -2.02227934  0.03426233
H  -0.98055671  4.30484578  2.87642776  0.06322468
H  -0.09776472  2.38480577 -2.98509848  0.06256189
H  -4.35222427  1.66298390 -2.98147365  0.06256189
H   1.07562616  4.34555128  0.79567295  0.16388100
H  -0.95841537  5.60868282  0.07734733  0.02956173
H  -2.20591067  5.93477844  1.32007852  0.02956173
H  -0.39333121  4.06139296 -4.77067983  0.06227868
H  -4.62631865  3.34116830 -4.77225814  0.06227868
H   0.81666986  6.45505084  1.77980132  0.02979353
H  -2.65231842  4.54173992 -5.66953711  0.06226890
H   3.02734053  2.19507591  1.47726982  0.06357285
H  -0.43454119  6.23437596  3.90207223  0.02330924
H  -0.04512764  7.95232549  3.61949282  0.02330924
H  -1.71843705  7.35636961  3.30281032  0.02330924
H   0.31264627  8.84086687  1.34691078  0.02330924
H  -0.01875517  7.84015071 -0.10905505  0.02330924
H  -1.39341222  8.42471548  0.91328243  0.02330924
H   1.06827702 -0.08435088  1.82133758  0.16389382
H   1.86262956  2.90977455 -0.66713942  0.03426233
H   0.84586492  1.44368407 -0.58244311  0.03426233
H   2.94596335 -2.45065069  2.41719577  0.06363435
H   1.54384614 -0.30477315 -2.00062981  0.06256189
H   4.52135229  2.42310782 -0.47829087  0.06256189
H   1.20706574 -1.65304793  0.12077105  0.16389499
H   3.80808835 -3.72726856  0.29328183  0.03595049
H   4.22742214 -2.13073276 -0.38821806  0.03595049
H   3.28849628 -1.46475274 -3.30108886  0.06227868
H   6.25380376  1.23667305 -1.77615978  0.06227868
H   5.64407449 -0.70725340 -3.18548661  0.06226890
H   4.97144119 -4.21239892  2.90718848  0.08355648
H   8.37780894 -1.95213796  1.97851990  0.10408786
H   7.41607566 -3.70293140  3.60786741  0.16690687
H  -5.31945655 -2.21377550  1.40782030  0.03262469
H  -3.55517721 -4.46183939  0.24008485  0.02340918
H  -5.30957790 -4.15651488 -0.04251855  0.02340918
H  -4.09576765 -3.02968414 -0.71040729  0.02340918
H  -3.70728193 -4.49093408  2.74063286  0.02673565
H  -4.49362658 -3.14066081  3.62454865  0.02673565
H  -6.72644839 -3.82610899  2.61160382  0.02304679
H  -5.97804675 -5.04049702  3.70945164  0.02304679
H  -5.90261868 -5.29219079  1.93200835  0.02304679
H   0.68307165 -5.26172196 -1.29699058  0.03262469
H  -1.83744886 -5.63372006 -1.23154548  0.02340918
H  -1.13891739 -5.47346142 -2.86418768  0.02340918
H  -2.03684025 -4.08589996 -2.14047565  0.02340918
H   1.60988855 -3.02547365 -1.76187858  0.02673565
H  -0.00953561 -2.37680713 -2.19123751  0.02673565
H  -0.09663728 -3.81591136 -4.17930489  0.02304679
H   1.47717463 -2.95956555 -4.15016565  0.02304679
H   1.40560649 -4.69303408 -3.65998854  0.02304679
