      -----------------------------------------------------------      
     |                   =====================                   |     
     |                           x T B                           |     
     |                   =====================                   |     
     |                         S. Grimme                         |     
     |          Mulliken Center for Theoretical Chemistry        |     
     |                    University of Bonn                     |     
      -----------------------------------------------------------      

   * xtb version 6.7.1 (edcfbbe) compiled by 'albert@albert-system' on 2024-07-22

   xtb is free software: you can redistribute it and/or modify it under
   the terms of the GNU Lesser General Public License as published by
   the Free Software Foundation, either version 3 of the License, or
   (at your option) any later version.
   
   xtb is distributed in the hope that it will be useful,
   but WITHOUT ANY WARRANTY; without even the implied warranty of
   MERCHANTABILITY or FITNESS FOR A PARTICULAR PURPOSE.  See the
   GNU Lesser General Public License for more details.
   
   Cite this work as:
   * C. Bannwarth, E. Caldeweyher, S. Ehlert, A. Hansen, P. Pracht,
     J. Seibert, S. Spicher, S. Grimme, WIREs Comput. Mol. Sci., 2020, 11,
     e01493. DOI: 10.1002/wcms.1493
   
   for GFN2-xTB:
   * C. Bannwarth, S. Ehlert and S. Grimme., J. Chem. Theory Comput., 2019,
     15, 1652-1671. DOI: 10.1021/acs.jctc.8b01176
   for GFN1-xTB:
   * S. Grimme, C. Bannwarth, P. Shushkov, J. Chem. Theory Comput., 2017,
     13, 1989-2009. DOI: 10.1021/acs.jctc.7b00118
   for GFN0-xTB:
   * P. Pracht, E. Caldeweyher, S. Ehlert, S. Grimme, ChemRxiv, 2019, preprint.
     DOI: 10.26434/chemrxiv.8326202.v1
   for GFN-FF:
   * S. Spicher and S. Grimme, Angew. Chem. Int. Ed., 2020, 59, 15665-15673.
     DOI: 10.1002/anie.202004239
   
   for ALPB and GBSA implicit solvation:
   * S. Ehlert, M. Stahn, S. Spicher, S. Grimme, J. Chem. Theory Comput.,
     2021, 17, 4250-4261. DOI: 10.1021/acs.jctc.1c00471
   
   for ddCOSMO and CPCM-X implicit solvation:
   * M. Stahn, S. Ehlert, S. Grimme, J. Phys. Chem. A,
     2023, XX, XXXX-XXXX. DOI: 10.1021/acs.jpca.3c04382
   
   for DFT-D4:
   * E. Caldeweyher, C. Bannwarth and S. Grimme, J. Chem. Phys., 2017,
     147, 034112. DOI: 10.1063/1.4993215
   * E. Caldeweyher, S. Ehlert, A. Hansen, H. Neugebauer, S. Spicher,
     C. Bannwarth and S. Grimme, J. Chem. Phys., 2019, 150, 154122.
     DOI: 10.1063/1.5090222
   * E. Caldeweyher, J.-M. Mewes, S. Ehlert and S. Grimme, Phys. Chem. Chem. Phys.
     2020, 22, 8499-8512. DOI: 10.1039/D0CP00502A
   
   for sTDA-xTB:
   * S. Grimme and C. Bannwarth, J. Chem. Phys., 2016, 145, 054103.
     DOI: 10.1063/1.4959605
   
   in the mass-spec context:
   * V. Asgeirsson, C. Bauer and S. Grimme, Chem. Sci., 2017, 8, 4879.
     DOI: 10.1039/c7sc00601b
   * J. Koopman and S. Grimme, ACS Omega 2019, 4, 12, 15120-15133.
     DOI: 10.1021/acsomega.9b02011
   
   for metadynamics refer to:
   * S. Grimme, J. Chem. Theory Comput., 2019, 155, 2847-2862
     DOI: 10.1021/acs.jctc.9b00143
   
   for SPH calculations refer to:
   * S. Spicher and S. Grimme, J. Chem. Theory Comput., 2021, 17, 1701-1714
     DOI: 10.1021/acs.jctc.0c01306
   
   for ONIOM refer to:
   * C. Plett, A. Katbashev, S. Ehlert, S. Grimme, M. Bursch,
     Phys. Chem. Chem. Phys., 2023, 25, 17860-17868. DOI: 10.1039/D3CP02178E
   
   for DIPRO refer to:
   * J. Kohn, N. Gildemeister, S. Grimme, D. Fazzi, A. Hansen,
     J. Chem. Phys., 2023, just accepted.
   
   for PTB refer to:
   * S. Grimme, M. Mueller, A. Hansen, J. Chem. Phys., 2023, 158, 124111.
     DOI: 10.1063/5.0137838
   
   with help from (in alphabetical order)
   P. Atkinson, C. Bannwarth, F. Bohle, G. Brandenburg, E. Caldeweyher
   M. Checinski, S. Dohm, S. Ehlert, S. Ehrlich, I. Gerasimov, C. Hölzer
   A. Katbashev, J. Kohn, J. Koopman, C. Lavigne, S. Lehtola, F. März, M. Müller,
   F. Musil, H. Neugebauer, J. Pisarek, C. Plett, P. Pracht, F. Pultar,
   J. Seibert, P. Shushkov, S. Spicher, M. Stahn, M. Steiner, T. Strunk,
   J. Stückrath, T. Rose, and J. Unsleber
   
 * started run on 2026/05/23 at 12:53:03.097     
   ID    Z sym.   atoms
    1    7 N      1, 5, 10, 17, 23, 25, 28, 34, 41, 46, 50
    2    6 C      2, 3, 6-8, 11-15, 18-21, 24, 26, 27, 29-32, 35-38, 40,
                  42-45, 48, 49, 51-53
    3    8 O      4, 9, 16, 22, 33, 39, 47
    4    1 H      54-110

           -------------------------------------------------
          |                Calculation Setup                |
           -------------------------------------------------

          program call               : /home/xchen/software/xtb-6.7.1/xtb-dist/bin/xtb /home/xchen/Test/benchmark/md_sampled/07_7_0083_0/snap_0146.xyz --charge 0 --gfn 2 --norestart
          coordinate file            : /home/xchen/Test/benchmark/md_sampled/07_7_0083_0/snap_0146.xyz
          omp threads                :                    48


           -------------------------------------------------
          |                 G F N 2 - x T B                 |
           -------------------------------------------------

        Reference                      10.1021/acs.jctc.8b01176
      * Hamiltonian:
        H0-scaling (s, p, d)           1.850000    2.230000    2.230000
        zeta-weighting                 0.500000
      * Dispersion:
        s8                             2.700000
        a1                             0.520000
        a2                             5.000000
        s9                             5.000000
      * Repulsion:
        kExp                           1.500000    1.000000
        rExp                           1.000000
      * Coulomb:
        alpha                          2.000000
        third order                    shell-resolved
        anisotropic                    true
        a3                             3.000000
        a5                             4.000000
        cn-shift                       1.200000
        cn-exp                         4.000000
        max-rad                        5.000000


          ...................................................
          :                      SETUP                      :
          :.................................................:
          :  # basis functions                 269          :
          :  # atomic orbitals                 269          :
          :  # shells                          163          :
          :  # electrons                       294          :
          :  max. iterations                   250          :
          :  Hamiltonian                  GFN2-xTB          :
          :  restarted?                      false          :
          :  GBSA solvation                  false          :
          :  PC potential                    false          :
          :  electronic temp.          300.0000000     K    :
          :  accuracy                    1.0000000          :
          :  -> integral cutoff          0.2500000E+02      :
          :  -> integral neglect         0.1000000E-07      :
          :  -> SCF convergence          0.1000000E-05 Eh   :
          :  -> wf. convergence          0.1000000E-03 e    :
          :  Broyden damping             0.4000000          :
          :  net charge                          0          :
          :  unpaired electrons                  0          :
          ...................................................

 iter      E             dE          RMSdq      gap      omega  full diag
   1   -166.0791968 -0.166079E+03  0.374E+00    3.85       0.0  T
   2   -166.4893345 -0.410138E+00  0.209E+00    3.36       1.0  T
   3   -166.5096275 -0.202931E-01  0.115E+00    3.55       1.0  T
   4   -166.5101241 -0.496551E-03  0.355E-01    3.12       1.0  T
   5   -166.5205614 -0.104373E-01  0.986E-02    3.23       1.0  T
   6   -166.5207913 -0.229903E-03  0.500E-02    3.25       1.0  T
   7   -166.5208507 -0.594241E-04  0.214E-02    3.25       1.0  T
   8   -166.5208574 -0.673217E-05  0.592E-03    3.25       1.6  T
   9   -166.5208583 -0.834707E-06  0.285E-03    3.25       3.3  T
  10   -166.5208584 -0.136670E-06  0.108E-03    3.25       8.8  T
  11   -166.5208584 -0.368411E-07  0.448E-04    3.25      21.3  T
  12   -166.5208584 -0.561377E-08  0.130E-04    3.25      73.3  T

   *** convergence criteria satisfied after 12 iterations ***

         #    Occupation            Energy/Eh            Energy/eV
      -------------------------------------------------------------
         1        2.0000           -0.7172690             -19.5179
       ...           ...                  ...                  ...
       141        2.0000           -0.3819035             -10.3921
       142        2.0000           -0.3768090             -10.2535
       143        2.0000           -0.3749598             -10.2032
       144        2.0000           -0.3710850             -10.0977
       145        2.0000           -0.3688114             -10.0359
       146        2.0000           -0.3645910              -9.9210
       147        2.0000           -0.3645531              -9.9200 (HOMO)
       148                         -0.2450890              -6.6692 (LUMO)
       149                         -0.2371577              -6.4534
       150                         -0.2293819              -6.2418
       151                         -0.2225542              -6.0560
       152                         -0.2180240              -5.9327
       ...                                ...                  ...
       269                          0.6729736              18.3125
      -------------------------------------------------------------
                  HL-Gap            0.1194641 Eh            3.2508 eV
             Fermi-level           -0.3048211 Eh           -8.2946 eV

 SCC (total)                   0 d,  0 h,  0 min, 11.872 sec
 SCC setup                      ...        0 min,  0.030 sec (  0.249%)
 Dispersion                     ...        0 min,  0.127 sec (  1.067%)
 classical contributions        ...        0 min,  0.006 sec (  0.047%)
 integral evaluation            ...        0 min,  0.501 sec (  4.220%)
 iterations                     ...        0 min, 10.570 sec ( 89.036%)
 molecular gradient             ...        0 min,  0.621 sec (  5.230%)
 printout                       ...        0 min,  0.018 sec (  0.150%)

         :::::::::::::::::::::::::::::::::::::::::::::::::::::
         ::                     SUMMARY                     ::
         :::::::::::::::::::::::::::::::::::::::::::::::::::::
         :: total energy            -164.580888189579 Eh    ::
         :: gradient norm              0.365206413794 Eh/a0 ::
         :: HOMO-LUMO gap              3.250782719632 eV    ::
         ::.................................................::
         :: SCC energy              -166.515216760667 Eh    ::
         :: -> isotropic ES            0.291932602857 Eh    ::
         :: -> anisotropic ES          0.020289734253 Eh    ::
         :: -> anisotropic XC          0.068542216813 Eh    ::
         :: -> dispersion             -0.132007157170 Eh    ::
         :: repulsion energy           1.934328571088 Eh    ::
         :: add. restraining           0.000000000000 Eh    ::
         :: total charge              -0.000000000000 e     ::
         :::::::::::::::::::::::::::::::::::::::::::::::::::::

           -------------------------------------------------
          |                Property Printout                |
           -------------------------------------------------

    * Orbital Energies and Occupations

         #    Occupation            Energy/Eh            Energy/eV
      -------------------------------------------------------------
         1        2.0000           -0.7172690             -19.5179
       ...           ...                  ...                  ...
       135        2.0000           -0.4075105             -11.0889
       136        2.0000           -0.4054243             -11.0322
       137        2.0000           -0.4025012             -10.9526
       138        2.0000           -0.3959414             -10.7741
       139        2.0000           -0.3896690             -10.6034
       140        2.0000           -0.3854609             -10.4889
       141        2.0000           -0.3819035             -10.3921
       142        2.0000           -0.3768090             -10.2535
       143        2.0000           -0.3749598             -10.2032
       144        2.0000           -0.3710850             -10.0977
       145        2.0000           -0.3688114             -10.0359
       146        2.0000           -0.3645910              -9.9210
       147        2.0000           -0.3645531              -9.9200 (HOMO)
       148                         -0.2450890              -6.6692 (LUMO)
       149                         -0.2371577              -6.4534
       150                         -0.2293819              -6.2418
       151                         -0.2225542              -6.0560
       152                         -0.2180240              -5.9327
       153                         -0.2085781              -5.6757
       154                         -0.2006672              -5.4604
       155                         -0.1914844              -5.2106
       156                         -0.1516965              -4.1279
       157                         -0.0718818              -1.9560
       158                         -0.0487213              -1.3258
       ...                                ...                  ...
       269                          0.6729736              18.3125
      -------------------------------------------------------------
                  HL-Gap            0.1194641 Eh            3.2508 eV
             Fermi-level           -0.3048211 Eh           -8.2946 eV

     #   Z          covCN         q      C6AA      α(0)
     1   7 N        2.684    -0.193    25.188     7.454
     2   6 C        3.728    -0.020    21.026     6.547
     3   6 C        2.756     0.266    22.506     7.769
     4   8 O        0.857    -0.427    22.225     6.321
     5   7 N        2.685    -0.152    24.294     7.320
     6   6 C        3.785     0.031    20.064     6.380
     7   6 C        2.757     0.270    22.442     7.758
     8   6 C        3.809     0.024    20.171     6.393
     9   8 O        0.858    -0.427    22.231     6.321
    10   7 N        2.791    -0.127    23.747     7.238
    11   6 C        3.830    -0.058    21.601     6.613
    12   6 C        3.755     0.016    20.359     6.433
    13   6 C        2.774     0.252    22.761     7.814
    14   6 C        3.819    -0.058    21.609     6.616
    15   6 C        3.764     0.030    20.107     6.392
    16   8 O        0.858    -0.396    21.601     6.231
    17   7 N        2.686    -0.197    25.272     7.466
    18   6 C        3.797    -0.077    21.979     6.675
    19   6 C        2.750     0.275    22.358     7.743
    20   6 C        3.302     0.056    25.003     8.003
    21   6 C        3.803     0.034    20.008     6.368
    22   8 O        0.859    -0.419    22.073     6.299
    23   7 N        1.931    -0.268    27.806     7.819
    24   6 C        3.058    -0.039    28.905     8.817
    25   7 N        2.745    -0.119    23.582     7.212
    26   6 C        3.792    -0.063    21.719     6.637
    27   6 C        3.233     0.092    25.166     8.143
    28   7 N        2.898    -0.081    22.815     7.094
    29   6 C        3.731     0.009    20.513     6.465
    30   6 C        2.807     0.265    22.527     7.776
    31   6 C        3.799    -0.056    21.585     6.615
    32   6 C        3.795     0.015    20.335     6.421
    33   8 O        0.859    -0.420    22.080     6.300
    34   7 N        2.719    -0.191    25.135     7.446
    35   6 C        3.804    -0.072    21.882     6.660
    36   6 C        2.759     0.273    22.379     7.747
    37   6 C        3.803    -0.058    21.616     6.619
    38   6 C        3.767     0.032    20.065     6.384
    39   8 O        0.865    -0.441    22.514     6.362
    40   6 C        3.789    -0.076    21.963     6.674
    41   7 N        2.688    -0.176    24.817     7.399
    42   6 C        3.817    -0.070    21.833     6.650
    43   6 C        3.707     0.020    20.379     6.453
    44   6 C        2.733     0.255    22.716     7.803
    45   6 C        3.796    -0.076    21.954     6.672
    46   7 N        2.624    -0.316    28.138     7.878
    47   8 O        0.857    -0.432    22.322     6.334
    48   6 C        3.789    -0.070    21.852     6.658
    49   6 C        3.709     0.042    19.998     6.391
    50   7 N        2.628    -0.324    28.350     7.908
    51   6 C        3.846    -0.008    20.683     6.469
    52   6 C        3.773    -0.126    22.943     6.825
    53   6 C        3.758    -0.119    22.836     6.813
    54   1 H        0.862     0.206     1.074     1.624
    55   1 H        0.925     0.092     1.861     2.133
    56   1 H        0.912     0.048     2.344     2.395
    57   1 H        0.860     0.183     1.197     1.714
    58   1 H        0.922     0.048     2.340     2.392
    59   1 H        0.913     0.064     2.156     2.297
    60   1 H        0.924     0.045     2.383     2.414
    61   1 H        0.919     0.063     2.166     2.302
    62   1 H        0.924     0.061     2.183     2.310
    63   1 H        0.917     0.031     2.576     2.510
    64   1 H        0.916     0.038     2.474     2.460
    65   1 H        0.922     0.043     2.416     2.431
    66   1 H        0.901     0.054     2.281     2.363
    67   1 H        0.857     0.205     1.082     1.630
    68   1 H        0.921     0.065     2.140     2.288
    69   1 H        0.927     0.087     1.905     2.158
    70   1 H        0.902     0.030     2.595     2.521
    71   1 H        0.928     0.029     2.595     2.519
    72   1 H        0.907     0.047     2.359     2.402
    73   1 H        0.928     0.056     2.245     2.343
    74   1 H        0.926     0.035     2.519     2.482
    75   1 H        0.861     0.163     1.316     1.797
    76   1 H        0.918     0.052     2.292     2.368
    77   1 H        0.910     0.054     2.279     2.361
    78   1 H        0.923     0.049     2.332     2.388
    79   1 H        0.922     0.048     2.346     2.396
    80   1 H        0.929     0.084     1.938     2.177
    81   1 H        0.859     0.190     1.157     1.685
    82   1 H        0.926     0.055     2.258     2.350
    83   1 H        0.925     0.062     2.176     2.307
    84   1 H        0.924     0.032     2.564     2.504
    85   1 H        0.926     0.033     2.548     2.496
    86   1 H        0.893     0.058     2.223     2.333
    87   1 H        0.922     0.026     2.638     2.540
    88   1 H        0.921     0.030     2.587     2.515
    89   1 H        0.860     0.193     1.144     1.676
    90   1 H        0.926     0.061     2.186     2.312
    91   1 H        0.927     0.046     2.375     2.410
    92   1 H        0.913     0.033     2.549     2.497
    93   1 H        0.918     0.034     2.538     2.492
    94   1 H        0.925     0.049     2.336     2.390
    95   1 H        0.929     0.058     2.228     2.334
    96   1 H        0.860     0.142     1.458     1.891
    97   1 H        0.856     0.135     1.508     1.924
    98   1 H        0.924     0.046     2.367     2.406
    99   1 H        0.924     0.027     2.628     2.535
   100   1 H        0.910     0.017     2.788     2.612
   101   1 H        0.916    -0.014     3.311     2.846
   102   1 H        0.861     0.142     1.458     1.892
   103   1 H        0.858     0.132     1.530     1.938
   104   1 H        0.917     0.021     2.719     2.579
   105   1 H        0.928     0.063     2.165     2.301
   106   1 H        0.929     0.066     2.130     2.282
   107   1 H        0.924     0.034     2.528     2.486
   108   1 H        0.925     0.054     2.270     2.356
   109   1 H        0.923     0.035     2.510     2.478
   110   1 H        0.928     0.056     2.250     2.346

 Mol. C6AA /au·bohr⁶  :     112152.556668
 Mol. C8AA /au·bohr⁸  :    2483196.233569
 Mol. α(0) /au        :        500.486355


Wiberg/Mayer (AO) data.
largest (>0.10) Wiberg bond orders for each atom

 ---------------------------------------------------------------------------
     #   Z sym  total        # sym  WBO       # sym  WBO       # sym  WBO
 ---------------------------------------------------------------------------
     1   7 N    3.410 --     7 C    1.230     2 C    0.998    54 H    0.913
                             9 O    0.193
     2   6 C    3.971 --     1 N    0.998    56 H    0.960    55 H    0.950
                             3 C    0.945
     3   6 C    3.950 --     4 O    1.672     5 N    1.262     2 C    0.945
     4   8 O    2.026 --     3 C    1.672     5 N    0.182
     5   7 N    3.453 --     3 C    1.262     6 C    1.001    57 H    0.935
                             4 O    0.182
     6   6 C    3.961 --     5 N    1.001    51 C    0.986    58 H    0.942
                            44 C    0.877
     7   6 C    3.948 --     9 O    1.699     1 N    1.230     8 C    0.941
     8   6 C    3.972 --    11 C    0.995    10 N    0.981     7 C    0.941
                            59 H    0.926
     9   8 O    2.013 --     7 C    1.699     1 N    0.193
    10   7 N    3.431 --    13 C    1.166    12 C    1.004     8 C    0.981
                            16 O    0.181
    11   6 C    3.986 --    14 C    0.997     8 C    0.995    60 H    0.977
                            61 H    0.969
    12   6 C    3.971 --    10 N    1.004    14 C    0.995    62 H    0.967
                            63 H    0.958
    13   6 C    3.944 --    16 O    1.741    10 N    1.166    15 C    0.927
    14   6 C    3.987 --    11 C    0.997    12 C    0.995    65 H    0.979
                            64 H    0.978
    15   6 C    3.967 --    17 N    0.995    18 C    0.982    66 H    0.932
                            13 C    0.927
    16   8 O    2.060 --    13 C    1.741    10 N    0.181
    17   7 N    3.426 --    19 C    1.223    15 C    0.995    67 H    0.898
                            22 O    0.200
    18   6 C    3.985 --    15 C    0.982    20 C    0.972    69 H    0.966
                            68 H    0.965
    19   6 C    3.955 --    22 O    1.699    17 N    1.223    21 C    0.965
    20   6 C    3.968 --    24 C    1.562    23 N    1.307    18 C    0.972
    21   6 C    3.969 --    26 C    0.974    19 C    0.965    25 N    0.959
                            70 H    0.947
    22   8 O    2.017 --    19 C    1.699    17 N    0.200
    23   7 N    3.015 --    27 C    1.512    20 C    1.307    28 N    0.106
    24   6 C    3.929 --    20 C    1.562    28 N    1.180    71 H    0.966
                            27 C    0.134
    25   7 N    3.436 --    30 C    1.201    29 C    0.991    21 C    0.959
                            33 O    0.184
    26   6 C    3.987 --    31 C    0.997    73 H    0.981    72 H    0.976
                            21 C    0.974
    27   6 C    3.954 --    23 N    1.512    28 N    1.291    74 H    0.963
                            24 C    0.134
    28   7 N    3.588 --    27 C    1.291    24 C    1.180    75 H    0.940
                            23 N    0.106
    29   6 C    3.967 --    31 C    1.000    25 N    0.991    76 H    0.957
                            77 H    0.950
    30   6 C    3.949 --    33 O    1.705    25 N    1.201    32 C    0.954
    31   6 C    3.991 --    29 C    1.000    26 C    0.997    78 H    0.980
                            79 H    0.978
    32   6 C    3.959 --    34 N    0.964    35 C    0.956    30 C    0.954
                            80 H    0.941
    33   8 O    2.036 --    30 C    1.705    25 N    0.184
    34   7 N    3.431 --    36 C    1.267    32 C    0.964    81 H    0.915
                            39 O    0.193
    35   6 C    3.988 --    37 C    1.012    82 H    0.974    83 H    0.972
                            32 C    0.956
    36   6 C    3.953 --    39 O    1.680    34 N    1.267    38 C    0.924
    37   6 C    3.995 --    35 C    1.012    40 C    1.008    85 H    0.976
                            84 H    0.969
    38   6 C    3.963 --    41 N    1.006    42 C    0.979    86 H    0.931
                            36 C    0.924
    39   8 O    2.001 --    36 C    1.680    34 N    0.193
    40   6 C    3.987 --    37 C    1.008    87 H    0.975    43 C    0.973
                            88 H    0.963
    41   7 N    3.445 --    44 C    1.240    38 C    1.006    89 H    0.918
                            47 O    0.181
    42   6 C    3.985 --    45 C    1.001    38 C    0.979    91 H    0.971
                            90 H    0.967
    43   6 C    3.978 --    46 N    1.050    40 C    0.973    93 H    0.967
                            92 H    0.965
    44   6 C    3.936 --    47 O    1.705    41 N    1.240     6 C    0.877
    45   6 C    3.985 --    42 C    1.001    48 C    0.995    94 H    0.976
                            95 H    0.974
    46   7 N    3.032 --    43 C    1.050    96 H    0.963    97 H    0.962
    47   8 O    2.029 --    44 C    1.705    41 N    0.181
    48   6 C    3.993 --    45 C    0.995    49 C    0.988    98 H    0.980
                            99 H    0.970
    49   6 C    3.987 --    50 N    1.049    48 C    0.988   100 H    0.971
                           101 H    0.957
    50   7 N    3.037 --    49 C    1.049   103 H    0.967   102 H    0.964
    51   6 C    3.991 --    52 C    1.016    53 C    0.992     6 C    0.986
                           104 H    0.948
    52   6 C    3.986 --    51 C    1.016   107 H    0.985   105 H    0.979
                           106 H    0.974
    53   6 C    3.992 --    51 C    0.992   109 H    0.989   110 H    0.986
                           108 H    0.984
    54   1 H    0.957 --     1 N    0.913
    55   1 H    0.991 --     2 C    0.950
    56   1 H    0.997 --     2 C    0.960
    57   1 H    0.966 --     5 N    0.935
    58   1 H    0.997 --     6 C    0.942
    59   1 H    0.996 --     8 C    0.926
    60   1 H    0.997 --    11 C    0.977
    61   1 H    0.996 --    11 C    0.969
    62   1 H    0.996 --    12 C    0.967
    63   1 H    0.999 --    12 C    0.958
    64   1 H    0.998 --    14 C    0.978
    65   1 H    0.998 --    14 C    0.979
    66   1 H    0.997 --    15 C    0.932
    67   1 H    0.958 --    17 N    0.898
    68   1 H    0.995 --    18 C    0.965
    69   1 H    0.992 --    18 C    0.966
    70   1 H    0.999 --    21 C    0.947
    71   1 H    0.999 --    24 C    0.966
    72   1 H    0.998 --    26 C    0.976
    73   1 H    0.996 --    26 C    0.981
    74   1 H    0.998 --    27 C    0.963
    75   1 H    0.973 --    28 N    0.940
    76   1 H    0.997 --    29 C    0.957
    77   1 H    0.997 --    29 C    0.950
    78   1 H    0.997 --    31 C    0.980
    79   1 H    0.997 --    31 C    0.978
    80   1 H    0.993 --    32 C    0.941
    81   1 H    0.964 --    34 N    0.915
    82   1 H    0.997 --    35 C    0.974
    83   1 H    0.996 --    35 C    0.972
    84   1 H    0.998 --    37 C    0.969
    85   1 H    0.999 --    37 C    0.976
    86   1 H    0.996 --    38 C    0.931
    87   1 H    0.999 --    40 C    0.975
    88   1 H    0.999 --    40 C    0.963
    89   1 H    0.963 --    41 N    0.918
    90   1 H    0.995 --    42 C    0.967
    91   1 H    0.998 --    42 C    0.971
    92   1 H    0.999 --    43 C    0.965
    93   1 H    0.999 --    43 C    0.967
    94   1 H    0.998 --    45 C    0.976
    95   1 H    0.996 --    45 C    0.974
    96   1 H    0.980 --    46 N    0.963
    97   1 H    0.982 --    46 N    0.962
    98   1 H    0.998 --    48 C    0.980
    99   1 H    0.999 --    48 C    0.970
   100   1 H    1.000 --    49 C    0.971
   101   1 H    1.000 --    49 C    0.957
   102   1 H    0.980 --    50 N    0.964
   103   1 H    0.983 --    50 N    0.967
   104   1 H    0.999 --    51 C    0.948
   105   1 H    0.996 --    52 C    0.979
   106   1 H    0.996 --    52 C    0.974
   107   1 H    0.999 --    52 C    0.985
   108   1 H    0.997 --    53 C    0.984
   109   1 H    0.999 --    53 C    0.989
   110   1 H    0.997 --    53 C    0.986
 ---------------------------------------------------------------------------

Topologies differ in total number of bonds
Writing topology from bond orders to xtbtopo.mol

molecular dipole:
                 x           y           z       tot (Debye)
 q only:       -0.435      -2.211       0.219
   full:       -0.309      -3.039      -0.535       7.881
molecular quadrupole (traceless):
                xx          xy          yy          xz          yz          zz
 q only:       33.632       5.616       7.208      -7.975      -1.398     -40.839
  q+dip:       41.542       3.851       7.703      -8.445      -1.795     -49.245
   full:       40.583       2.906       8.626      -7.372      -1.128     -49.210


           -------------------------------------------------
          | TOTAL ENERGY             -164.580888189579 Eh   |
          | GRADIENT NORM               0.365206413794 Eh/α |
          | HOMO-LUMO GAP               3.250782719632 eV   |
           -------------------------------------------------

------------------------------------------------------------------------
 * finished run on 2026/05/23 at 12:53:15.730     
------------------------------------------------------------------------
 total:
 * wall-time:     0 d,  0 h,  0 min, 12.632 sec
 *  cpu-time:     0 d,  0 h,  0 min, 27.768 sec
 * ratio c/w:     2.198 speedup
 SCF:
 * wall-time:     0 d,  0 h,  0 min, 11.874 sec
 *  cpu-time:     0 d,  0 h,  0 min, 26.284 sec
 * ratio c/w:     2.214 speedup

normal termination of xtb
