      -----------------------------------------------------------      
     |                   =====================                   |     
     |                           x T B                           |     
     |                   =====================                   |     
     |                         S. Grimme                         |     
     |          Mulliken Center for Theoretical Chemistry        |     
     |                    University of Bonn                     |     
      -----------------------------------------------------------      

   * xtb version 6.7.1 (26dd68d) compiled by 'froitzheim@fs7' on 2026-05-14

   xtb is free software: you can redistribute it and/or modify it under
   the terms of the GNU Lesser General Public License as published by
   the Free Software Foundation, either version 3 of the License, or
   (at your option) any later version.
   
   xtb is distributed in the hope that it will be useful,
   but WITHOUT ANY WARRANTY; without even the implied warranty of
   MERCHANTABILITY or FITNESS FOR A PARTICULAR PURPOSE.  See the
   GNU Lesser General Public License for more details.
   
   Cite this work as:
   * C. Bannwarth, E. Caldeweyher, S. Ehlert, A. Hansen, P. Pracht,
     J. Seibert, S. Spicher, S. Grimme, WIREs Comput. Mol. Sci., 2020, 11,
     e01493. DOI: 10.1002/wcms.1493
   
   for g-xTB:
   * T. Froitzheim, M. Müller, A. Hansen, S. Grimme, ChemRxiv, 2025, preprint.
     DOI: 10.26434/chemrxiv-2025-bjxv
   for GFN2-xTB:
   * C. Bannwarth, S. Ehlert and S. Grimme., J. Chem. Theory Comput., 2019,
     15, 1652-1671. DOI: 10.1021/acs.jctc.8b01176
   for GFN1-xTB:
   * S. Grimme, C. Bannwarth, P. Shushkov, J. Chem. Theory Comput., 2017,
     13, 1989-2009. DOI: 10.1021/acs.jctc.7b00118
   for GFN0-xTB:
   * P. Pracht, E. Caldeweyher, S. Ehlert, S. Grimme, ChemRxiv, 2019, preprint.
     DOI: 10.26434/chemrxiv.8326202.v1
   for GFN-FF:
   * S. Spicher and S. Grimme, Angew. Chem. Int. Ed., 2020, 59, 15665-15673.
     DOI: 10.1002/anie.202004239
   
   for ALPB and GBSA implicit solvation:
   * S. Ehlert, M. Stahn, S. Spicher, S. Grimme, J. Chem. Theory Comput.,
     2021, 17, 4250-4261. DOI: 10.1021/acs.jctc.1c00471
   
   for ddCOSMO and CPCM-X implicit solvation:
   * M. Stahn, S. Ehlert, S. Grimme, J. Phys. Chem. A,
     2023, XX, XXXX-XXXX. DOI: 10.1021/acs.jpca.3c04382
   
   for DFT-D4:
   * E. Caldeweyher, C. Bannwarth and S. Grimme, J. Chem. Phys., 2017,
     147, 034112. DOI: 10.1063/1.4993215
   * E. Caldeweyher, S. Ehlert, A. Hansen, H. Neugebauer, S. Spicher,
     C. Bannwarth and S. Grimme, J. Chem. Phys., 2019, 150, 154122.
     DOI: 10.1063/1.5090222
   * E. Caldeweyher, J.-M. Mewes, S. Ehlert and S. Grimme, Phys. Chem. Chem. Phys.
     2020, 22, 8499-8512. DOI: 10.1039/D0CP00502A
   
   for sTDA-xTB:
   * S. Grimme and C. Bannwarth, J. Chem. Phys., 2016, 145, 054103.
     DOI: 10.1063/1.4959605
   
   in the mass-spec context:
   * V. Asgeirsson, C. Bauer and S. Grimme, Chem. Sci., 2017, 8, 4879.
     DOI: 10.1039/c7sc00601b
   * J. Koopman and S. Grimme, ACS Omega 2019, 4, 12, 15120-15133.
     DOI: 10.1021/acsomega.9b02011
   
   for metadynamics refer to:
   * S. Grimme, J. Chem. Theory Comput., 2019, 155, 2847-2862
     DOI: 10.1021/acs.jctc.9b00143
   
   for SPH calculations refer to:
   * S. Spicher and S. Grimme, J. Chem. Theory Comput., 2021, 17, 1701-1714
     DOI: 10.1021/acs.jctc.0c01306
   
   for ONIOM refer to:
   * C. Plett, A. Katbashev, S. Ehlert, S. Grimme, M. Bursch,
     Phys. Chem. Chem. Phys., 2023, 25, 17860-17868. DOI: 10.1039/D3CP02178E
   
   for DIPRO refer to:
   * J. Kohn, N. Gildemeister, S. Grimme, D. Fazzi, A. Hansen,
     J. Chem. Phys. 159, 144106 (2023). DOI: 10.1063/5.0167484
   
   for PTB refer to:
   * S. Grimme, M. Mueller, A. Hansen, J. Chem. Phys., 2023, 158, 124111.
     DOI: 10.1063/5.0137838
   
   with help from (in alphabetical order)
   P. Atkinson, C. Bannwarth, F. Bohle, G. Brandenburg, E. Caldeweyher,
   M. Checinski, S. Dohm, S. Ehlert, S. Ehrlich, M. Friede, T. Froitzheim,
   I. Gerasimov, C. Hölzer, A. Katbashev, J. Kohn, J. Koopman, C. Lavigne,
   S. Lehtola, F. März, M. Müller, F. Musil, H. Neugebauer, J. Pisarek,
   C. Plett, P. Pracht, F. Pultar, J. Seibert, P. Shushkov, S. Spicher,
   M. Stahn, M. Steiner, T. Strunk, J. Stückrath, T. Rose, and J. Unsleber
   
 * started run on 2026/05/23 at 12:31:39.026     
   ID    Z sym.   atoms
    1    7 N      1, 5, 10, 17, 18, 25, 30, 33
    2    6 C      2, 3, 6-8, 11-14, 19-23, 26-28, 31, 32, 34, 36-39
    3    8 O      4, 9, 15, 16, 24, 29, 35
    4    1 H      40-77

           -------------------------------------------------
          |                Calculation Setup                |
           -------------------------------------------------

          program call               : /home/xchen/software/xtb-6.7.1-gxtb/bin/xtb /home/xchen/Test/benchmark/md_sampled/05_5_0513_0/snap_0067.xyz --charge 0 --gxtb --norestart
          coordinate file            : /home/xchen/Test/benchmark/md_sampled/05_5_0513_0/snap_0067.xyz
          omp threads                :                    48

core increment energy         -1.7251241620057E+03 Eh
dispersion energy              1.7788201465641E-02 Eh
molecular charge               0.0000000000000E+00 e
number of electrons            2.1599999999805E+02 e
number of unpaired electrons   0.0000000000000E+00 e
wavefunction                   restricted
integral cutoff                2.6907767250513E+01 bohr
energy convergence             1.0000000000000E-06 Eh
density convergence            2.0000000000000E-05 e

------------------------------------------------------------
  cycle        total energy    energy error   density error
------------------------------------------------------------
      1     -1901.088751653  -1.7598238E+02   0.0000000E+00
      2     -1901.425436392  -3.3668474E-01   2.3135674E-02
      3     -1901.637961646  -2.1252525E-01   1.8321800E-02
      4     -1902.080506037  -4.4254439E-01   1.4559086E-02
      5     -1902.089045524  -8.5394864E-03   1.0935701E-03
      6     -1902.089653841  -6.0831789E-04   2.2127252E-04
      7     -1902.089714401  -6.0559066E-05   6.9402504E-05
      8     -1902.089719693  -5.2923700E-06   1.7491293E-05
      9     -1902.089720360  -6.6676870E-07   4.8995397E-06
------------------------------------------------------------

electronic energy             -1.7698334655545E+02 Eh
total energy                  -1.9020897203597E+03 Eh

Post processing:
 | Mayer-Wiberg bond orders
 | Molecular Multipole Moments

 total:                                   9.441 sec
 - increment                              0.000 sec (  0%)
 - repulsion                              0.007 sec (  0%)
 - dispersion                             0.201 sec (  2%)
 - coulomb                                0.072 sec (  0%)
 - exchange                               0.031 sec (  0%)
 - hamiltonian                            0.324 sec (  3%)
 - acp                                    0.258 sec (  2%)
 - spin polarization                      0.000 sec (  0%)
 - post processing                        0.152 sec (  1%)
 - scc                                    7.599 sec ( 80%)
 - coulomb gradient                       0.058 sec (  0%)
 - dispersion gradient                    0.052 sec (  0%)
 - exchange gradient                      0.153 sec (  1%)
 - repulsion gradient                     0.007 sec (  0%)
 - acp gradient                           0.269 sec (  2%)
 - hamiltonian gradient                   0.406 sec (  4%)
 - gradient                               0.945 sec ( 10%)

         :::::::::::::::::::::::::::::::::::::::::::::::::::::
         ::                     SUMMARY                     ::
         :::::::::::::::::::::::::::::::::::::::::::::::::::::
         :: total energy           -1902.089720359681 Eh    ::
         :: gradient norm              0.343316864873 Eh/a0 ::
         :: HOMO-LUMO gap              9.510957065743 eV    ::
         ::.................................................::
         :: add. restraining           0.000000000000 Eh    ::
         :: total charge               0.000000000000 e     ::
         :::::::::::::::::::::::::::::::::::::::::::::::::::::

           -------------------------------------------------
          |                Property Printout                |
           -------------------------------------------------

    * Orbital Energies and Occupations
------------------------------------------------------------------
      #    Occupation            Energy/Eh            Energy/eV
------------------------------------------------------------------
      1        2.0000           -1.3579910             -36.9528
    ...           ...                  ...                  ...
     96        2.0000           -0.3882596             -10.5651
     97        2.0000           -0.3870787             -10.5329
     98        2.0000           -0.3822736             -10.4022
     99        2.0000           -0.3791354             -10.3168
    100        2.0000           -0.3769199             -10.2565
    101        2.0000           -0.3700682             -10.0701
    102        2.0000           -0.3684772             -10.0268
    103        2.0000           -0.3659181              -9.9571
    104        2.0000           -0.3584652              -9.7543
    105        2.0000           -0.3562754              -9.6947
    106        2.0000           -0.3512475              -9.5579
    107        2.0000           -0.3487680              -9.4905
    108        2.0000           -0.3464997              -9.4287 (HOMO)
    109                          0.0030215               0.0822 (LUMO)
    110                          0.0140730               0.3829
    111                          0.0146503               0.3987
    112                          0.0197022               0.5361
    113                          0.0276544               0.7525
    114                          0.0357970               0.9741
    115                          0.0422774               1.1504
    116                          0.0555202               1.5108
    117                          0.1436123               3.9079
    118                          0.1538359               4.1861
    119                          0.1586355               4.3167
    ...                                ...                  ...
    194                          0.8525718              23.1997
------------------------------------------------------------------
               HL-Gap            0.3495212 Eh            9.5110 eV
------------------------------------------------------------------

Atomic charges and shell populations (in atomic units):
------------------------------------------------------
     #    Z                q          p(s)       p(p)
------------------------------------------------------
     1    7 N      -0.360820      1.364807   3.996013
     2    6 C      -0.018270      1.119706   2.898564
     3    6 C       0.412446      1.095809   2.491745
     4    8 O      -0.537989      1.856715   4.681273
     5    7 N      -0.337178      1.378958   3.958220
     6    6 C       0.029501      1.113749   2.856750
     7    6 C       0.412226      1.102443   2.485331
     8    6 C       0.033870      1.111413   2.854717
     9    8 O      -0.521064      1.853269   4.667796
    10    7 N      -0.328961      1.361523   3.967439
    11    6 C      -0.223834      1.159984   3.063849
    12    6 C       0.425086      1.098415   2.476499
    13    6 C       0.423246      1.106404   2.470350
    14    6 C       0.019418      1.139451   2.841130
    15    8 O      -0.559727      1.857917   4.701810
    16    8 O      -0.492512      1.849590   4.642922
    17    7 N      -0.436838      1.370331   4.066507
    18    7 N      -0.341101      1.356190   3.984911
    19    6 C      -0.095135      1.133257   2.961879
    20    6 C       0.401665      1.095566   2.502769
    21    6 C      -0.269707      1.175756   3.093951
    22    6 C      -0.247613      1.153882   3.093731
    23    6 C       0.011165      1.121349   2.867486
    24    8 O      -0.534830      1.850078   4.684752
    25    7 N      -0.284944      1.356594   3.928351
    26    6 C      -0.156067      1.116993   3.039074
    27    6 C       0.404861      1.110549   2.484590
    28    6 C       0.034145      1.099880   2.865975
    29    8 O      -0.616434      1.856910   4.759523
    30    7 N      -0.364727      1.574086   3.790641
    31    6 C      -0.075059      1.166194   2.908865
    32    6 C       0.111431      1.137768   2.750800
    33    7 N      -0.263206      1.370826   3.892380
    34    6 C       0.058649      1.117491   2.823860
    35    8 O      -0.543717      1.786485   4.757232
    36    6 C      -0.117190      1.134132   2.983058
    37    6 C      -0.243295      1.163402   3.079894
    38    6 C      -0.170469      1.134278   3.036191
    39    6 C      -0.239666      1.147463   3.092202
    40    1 H       0.254203      0.745797
    41    1 H       0.160996      0.839004
    42    1 H       0.262987      0.737013
    43    1 H       0.114055      0.885945
    44    1 H       0.140354      0.859646
    45    1 H       0.281104      0.718896
    46    1 H       0.111366      0.888634
    47    1 H       0.129285      0.870715
    48    1 H       0.137981      0.862019
    49    1 H       0.247086      0.752914
    50    1 H       0.252190      0.747810
    51    1 H       0.275463      0.724537
    52    1 H       0.097877      0.902123
    53    1 H       0.080670      0.919330
    54    1 H       0.096271      0.903729
    55    1 H       0.107504      0.892496
    56    1 H       0.088674      0.911326
    57    1 H       0.105408      0.894592
    58    1 H       0.098097      0.901903
    59    1 H       0.129920      0.870080
    60    1 H       0.268867      0.731133
    61    1 H       0.109196      0.890804
    62    1 H       0.126420      0.873580
    63    1 H       0.122537      0.877463
    64    1 H       0.137644      0.862356
    65    1 H       0.266082      0.733918
    66    1 H       0.077011      0.922989
    67    1 H       0.101580      0.898420
    68    1 H       0.376080      0.623920
    69    1 H       0.120798      0.879202
    70    1 H       0.082092      0.917908
    71    1 H       0.075711      0.924289
    72    1 H       0.118443      0.881557
    73    1 H       0.095214      0.904786
    74    1 H       0.106633      0.893367
    75    1 H       0.090057      0.909943
    76    1 H       0.073573      0.926427
    77    1 H       0.083215      0.916785
------------------------------------------------------


Wiberg/Mayer (AO) data.
largest (>0.10) Wiberg bond orders for each atom

 ---------------------------------------------------------------------------
     #   Z sym  total        # sym  WBO       # sym  WBO       # sym  WBO
 ---------------------------------------------------------------------------
     1   7 N    3.300 --     7 C    1.184     2 C    0.969    40 O    0.880
                             9 C    0.159
     2   6 C    3.925 --     1 N    0.969     3 C    0.968    34 C    0.938
                            41 O    0.918
     3   6 C    3.880 --     4 C    1.622     5 N    1.209     2 C    0.968
     4   8 C    1.931 --     3 C    1.622     5 N    0.147
     5   7 N    3.292 --     3 C    1.209     6 C    0.954    42 O    0.876
                             4 C    0.147
     6   6 C    3.931 --    27 C    0.955     5 N    0.954    36 C    0.946
                            43 O    0.938
     7   6 C    3.873 --     9 C    1.684     1 N    1.184     8 C    0.939
     8   6 C    3.935 --    11 C    0.991    10 N    0.952     7 C    0.939
                            44 O    0.933
     9   8 C    1.955 --     7 C    1.684     1 N    0.159
    10   7 N    3.331 --    12 C    1.242     8 C    0.952    45 O    0.871
                            15 C    0.161
    11   6 C    3.957 --     8 C    0.991    46 O    0.949    47 O    0.946
                            13 C    0.924
    12   6 C    3.871 --    15 C    1.622    10 N    1.242    14 C    0.933
    13   6 C    3.863 --    16 C    1.750    17 N    1.159    11 C    0.924
    14   6 C    3.916 --    19 C    0.959    18 N    0.949    48 O    0.934
                            12 C    0.933
    15   8 C    1.909 --    12 C    1.622    10 N    0.161
    16   8 C    2.020 --    13 C    1.750    17 N    0.173
    17   7 N    3.208 --    13 C    1.159    49 O    0.917    50 O    0.916
                            16 C    0.173
    18   7 N    3.350 --    20 C    1.262    14 C    0.949    51 O    0.880
                            24 C    0.171
    19   6 C    3.972 --    22 C    1.023    21 C    0.997    14 C    0.959
                            52 O    0.945
    20   6 C    3.884 --    24 C    1.653    18 N    1.262    23 C    0.899
    21   6 C    3.957 --    19 C    0.997    53 O    0.976    54 O    0.972
                            55 O    0.969
    22   6 C    3.957 --    19 C    1.023    56 O    0.971    58 O    0.969
                            57 O    0.963
    23   6 C    3.929 --    26 C    0.988    25 N    0.947    59 O    0.944
                            20 C    0.899
    24   8 C    1.942 --    20 C    1.653    18 N    0.171
    25   7 N    3.384 --    27 C    1.291    23 C    0.947    60 O    0.894
                            29 C    0.153
    26   6 C    3.968 --    28 C    1.032    23 C    0.988    61 O    0.948
                            62 O    0.931
    27   6 C    3.861 --    29 C    1.537    25 N    1.291     6 C    0.955
    28   6 C    3.966 --    31 C    1.610    30 N    1.198    26 C    1.032
    29   8 C    1.859 --    27 C    1.537    25 N    0.153
    30   7 N    2.996 --    32 C    1.550    28 C    1.198    33 N    0.108
    31   6 C    3.875 --    28 C    1.610    33 N    1.120    63 O    0.946
    32   6 C    3.908 --    30 N    1.550    33 N    1.267    64 O    0.943
    33   7 N    3.478 --    32 C    1.267    31 C    1.120    65 O    0.899
                            30 N    0.108
    34   6 C    3.887 --    35 C    1.004    67 O    0.945     2 C    0.938
                            66 O    0.933
    35   8 C    1.917 --    34 C    1.004    68 O    0.810
    36   6 C    3.961 --    37 C    1.006    38 C    0.979     6 C    0.946
                            69 O    0.930
    37   6 C    3.957 --    36 C    1.006    71 O    0.977    70 O    0.970
                            72 O    0.960
    38   6 C    3.966 --    39 C    1.046    36 C    0.979    73 O    0.952
                            74 O    0.948
    39   6 C    3.969 --    38 C    1.046    76 O    0.970    77 O    0.970
                            75 O    0.966
    40   1 O    0.935 --     1 N    0.880
    41   1 O    0.974 --     2 C    0.918
    42   1 O    0.931 --     5 N    0.876
    43   1 O    0.987 --     6 C    0.938
    44   1 O    0.980 --     8 C    0.933
    45   1 O    0.921 --    10 N    0.871
    46   1 O    0.988 --    11 C    0.949
    47   1 O    0.983 --    11 C    0.946
    48   1 O    0.981 --    14 C    0.934
    49   1 O    0.939 --    17 N    0.917
    50   1 O    0.936 --    17 N    0.916
    51   1 O    0.924 --    18 N    0.880
    52   1 O    0.990 --    19 C    0.945
    53   1 O    0.993 --    21 C    0.976
    54   1 O    0.991 --    21 C    0.972
    55   1 O    0.988 --    21 C    0.969
    56   1 O    0.992 --    22 C    0.971
    57   1 O    0.989 --    22 C    0.963
    58   1 O    0.990 --    22 C    0.969
    59   1 O    0.983 --    23 C    0.944
    60   1 O    0.928 --    25 N    0.894
    61   1 O    0.988 --    26 C    0.948
    62   1 O    0.984 --    26 C    0.931
    63   1 O    0.985 --    31 C    0.946
    64   1 O    0.981 --    32 C    0.943
    65   1 O    0.929 --    33 N    0.899
    66   1 O    0.994 --    34 C    0.933
    67   1 O    0.990 --    34 C    0.945
    68   1 O    0.859 --    35 C    0.810
    69   1 O    0.985 --    36 C    0.930
    70   1 O    0.993 --    37 C    0.970
    71   1 O    0.994 --    37 C    0.977
    72   1 O    0.986 --    37 C    0.960
    73   1 O    0.991 --    38 C    0.952
    74   1 O    0.989 --    38 C    0.948
    75   1 O    0.992 --    39 C    0.966
    76   1 O    0.995 --    39 C    0.970
    77   1 O    0.993 --    39 C    0.970
 ---------------------------------------------------------------------------

Topologies differ in total number of bonds
Writing topology from bond orders to xtbtopo.mol

Atomic dipole moments (in atomic units):
---------------------------------------------------------
     #    Z                 x            y            z
---------------------------------------------------------
           total    -2.164434    -3.096990    -1.086136
---------------------------------------------------------
         |total|     3.931388     9.992592 Debye


           -------------------------------------------------
          | TOTAL ENERGY            -1902.089720359681 Eh   |
          | GRADIENT NORM               0.343316864873 Eh/α |
           -------------------------------------------------

------------------------------------------------------------------------
 * finished run on 2026/05/23 at 12:31:49.223     
------------------------------------------------------------------------
 total:
 * wall-time:     0 d,  0 h,  0 min, 10.196 sec
 *  cpu-time:     0 d,  0 h,  0 min, 19.371 sec
 * ratio c/w:     1.900 speedup
 SCF:
 * wall-time:     0 d,  0 h,  0 min,  9.745 sec
 *  cpu-time:     0 d,  0 h,  0 min, 18.959 sec
 * ratio c/w:     1.946 speedup

normal termination of xtb
