      -----------------------------------------------------------      
     |                   =====================                   |     
     |                           x T B                           |     
     |                   =====================                   |     
     |                         S. Grimme                         |     
     |          Mulliken Center for Theoretical Chemistry        |     
     |                    University of Bonn                     |     
      -----------------------------------------------------------      

   * xtb version 6.7.1 (26dd68d) compiled by 'froitzheim@fs7' on 2026-05-14

   xtb is free software: you can redistribute it and/or modify it under
   the terms of the GNU Lesser General Public License as published by
   the Free Software Foundation, either version 3 of the License, or
   (at your option) any later version.
   
   xtb is distributed in the hope that it will be useful,
   but WITHOUT ANY WARRANTY; without even the implied warranty of
   MERCHANTABILITY or FITNESS FOR A PARTICULAR PURPOSE.  See the
   GNU Lesser General Public License for more details.
   
   Cite this work as:
   * C. Bannwarth, E. Caldeweyher, S. Ehlert, A. Hansen, P. Pracht,
     J. Seibert, S. Spicher, S. Grimme, WIREs Comput. Mol. Sci., 2020, 11,
     e01493. DOI: 10.1002/wcms.1493
   
   for g-xTB:
   * T. Froitzheim, M. Müller, A. Hansen, S. Grimme, ChemRxiv, 2025, preprint.
     DOI: 10.26434/chemrxiv-2025-bjxv
   for GFN2-xTB:
   * C. Bannwarth, S. Ehlert and S. Grimme., J. Chem. Theory Comput., 2019,
     15, 1652-1671. DOI: 10.1021/acs.jctc.8b01176
   for GFN1-xTB:
   * S. Grimme, C. Bannwarth, P. Shushkov, J. Chem. Theory Comput., 2017,
     13, 1989-2009. DOI: 10.1021/acs.jctc.7b00118
   for GFN0-xTB:
   * P. Pracht, E. Caldeweyher, S. Ehlert, S. Grimme, ChemRxiv, 2019, preprint.
     DOI: 10.26434/chemrxiv.8326202.v1
   for GFN-FF:
   * S. Spicher and S. Grimme, Angew. Chem. Int. Ed., 2020, 59, 15665-15673.
     DOI: 10.1002/anie.202004239
   
   for ALPB and GBSA implicit solvation:
   * S. Ehlert, M. Stahn, S. Spicher, S. Grimme, J. Chem. Theory Comput.,
     2021, 17, 4250-4261. DOI: 10.1021/acs.jctc.1c00471
   
   for ddCOSMO and CPCM-X implicit solvation:
   * M. Stahn, S. Ehlert, S. Grimme, J. Phys. Chem. A,
     2023, XX, XXXX-XXXX. DOI: 10.1021/acs.jpca.3c04382
   
   for DFT-D4:
   * E. Caldeweyher, C. Bannwarth and S. Grimme, J. Chem. Phys., 2017,
     147, 034112. DOI: 10.1063/1.4993215
   * E. Caldeweyher, S. Ehlert, A. Hansen, H. Neugebauer, S. Spicher,
     C. Bannwarth and S. Grimme, J. Chem. Phys., 2019, 150, 154122.
     DOI: 10.1063/1.5090222
   * E. Caldeweyher, J.-M. Mewes, S. Ehlert and S. Grimme, Phys. Chem. Chem. Phys.
     2020, 22, 8499-8512. DOI: 10.1039/D0CP00502A
   
   for sTDA-xTB:
   * S. Grimme and C. Bannwarth, J. Chem. Phys., 2016, 145, 054103.
     DOI: 10.1063/1.4959605
   
   in the mass-spec context:
   * V. Asgeirsson, C. Bauer and S. Grimme, Chem. Sci., 2017, 8, 4879.
     DOI: 10.1039/c7sc00601b
   * J. Koopman and S. Grimme, ACS Omega 2019, 4, 12, 15120-15133.
     DOI: 10.1021/acsomega.9b02011
   
   for metadynamics refer to:
   * S. Grimme, J. Chem. Theory Comput., 2019, 155, 2847-2862
     DOI: 10.1021/acs.jctc.9b00143
   
   for SPH calculations refer to:
   * S. Spicher and S. Grimme, J. Chem. Theory Comput., 2021, 17, 1701-1714
     DOI: 10.1021/acs.jctc.0c01306
   
   for ONIOM refer to:
   * C. Plett, A. Katbashev, S. Ehlert, S. Grimme, M. Bursch,
     Phys. Chem. Chem. Phys., 2023, 25, 17860-17868. DOI: 10.1039/D3CP02178E
   
   for DIPRO refer to:
   * J. Kohn, N. Gildemeister, S. Grimme, D. Fazzi, A. Hansen,
     J. Chem. Phys. 159, 144106 (2023). DOI: 10.1063/5.0167484
   
   for PTB refer to:
   * S. Grimme, M. Mueller, A. Hansen, J. Chem. Phys., 2023, 158, 124111.
     DOI: 10.1063/5.0137838
   
   with help from (in alphabetical order)
   P. Atkinson, C. Bannwarth, F. Bohle, G. Brandenburg, E. Caldeweyher,
   M. Checinski, S. Dohm, S. Ehlert, S. Ehrlich, M. Friede, T. Froitzheim,
   I. Gerasimov, C. Hölzer, A. Katbashev, J. Kohn, J. Koopman, C. Lavigne,
   S. Lehtola, F. März, M. Müller, F. Musil, H. Neugebauer, J. Pisarek,
   C. Plett, P. Pracht, F. Pultar, J. Seibert, P. Shushkov, S. Spicher,
   M. Stahn, M. Steiner, T. Strunk, J. Stückrath, T. Rose, and J. Unsleber
   
 * started run on 2026/05/23 at 12:53:55.656     
   ID    Z sym.   atoms
    1    7 N      1, 5, 10, 17, 18, 26, 33, 36, 42, 49, 54
    2    6 C      2, 3, 6-8, 11-14, 19-22, 24, 25, 27-30, 32, 34, 37, 39, 40,
                  43-45, 47, 50-52, 55
    3    8 O      4, 9, 15, 16, 23, 31, 35, 38, 41, 46, 48, 53, 56
    4    1 H      57-109

           -------------------------------------------------
          |                Calculation Setup                |
           -------------------------------------------------

          program call               : /home/xchen/software/xtb-6.7.1-gxtb/bin/xtb /home/xchen/Test/benchmark/md_sampled/08_7_0366_0/snap_0153.xyz --charge 0 --gxtb --norestart
          coordinate file            : /home/xchen/Test/benchmark/md_sampled/08_7_0366_0/snap_0153.xyz
          omp threads                :                    48

core increment energy         -2.5714958258590E+03 Eh
dispersion energy              2.6352061450385E-02 Eh
molecular charge               0.0000000000000E+00 e
number of electrons            3.1399999999720E+02 e
number of unpaired electrons   0.0000000000000E+00 e
wavefunction                   restricted
integral cutoff                2.6907767250513E+01 bohr
energy convergence             1.0000000000000E-06 Eh
density convergence            2.0000000000000E-05 e

------------------------------------------------------------
  cycle        total energy    energy error   density error
------------------------------------------------------------
      1     -2830.141667565  -2.5867219E+02   0.0000000E+00
      2     -2830.649337305  -5.0766974E-01   1.9138736E-02
      3     -2830.982149473  -3.3281217E-01   1.5316846E-02
      4     -2831.702158823  -7.2000935E-01   1.2260448E-02
      5     -2831.713144044  -1.0985222E-02   1.0156443E-03
      6     -2831.713904676  -7.6063150E-04   2.1593804E-04
      7     -2831.713969359  -6.4683116E-05   7.6019150E-05
      8     -2831.713974735  -5.3757731E-06   1.8941208E-05
      9     -2831.713975434  -6.9932690E-07   3.7653058E-06
------------------------------------------------------------

electronic energy             -2.6024450163651E+02 Eh
total energy                  -2.8317139754341E+03 Eh

Post processing:
 | Mayer-Wiberg bond orders
 | Molecular Multipole Moments

 total:                                  12.586 sec
 - increment                              0.000 sec (  0%)
 - repulsion                              0.050 sec (  0%)
 - dispersion                             0.411 sec (  3%)
 - coulomb                                0.096 sec (  0%)
 - exchange                               0.005 sec (  0%)
 - hamiltonian                            0.388 sec (  3%)
 - acp                                    0.272 sec (  2%)
 - spin polarization                      0.000 sec (  0%)
 - post processing                        0.168 sec (  1%)
 - scc                                    9.949 sec ( 79%)
 - coulomb gradient                       0.116 sec (  0%)
 - dispersion gradient                    0.061 sec (  0%)
 - exchange gradient                      0.232 sec (  1%)
 - repulsion gradient                     0.014 sec (  0%)
 - acp gradient                           0.432 sec (  3%)
 - hamiltonian gradient                   0.548 sec (  4%)
 - gradient                               1.403 sec ( 11%)

         :::::::::::::::::::::::::::::::::::::::::::::::::::::
         ::                     SUMMARY                     ::
         :::::::::::::::::::::::::::::::::::::::::::::::::::::
         :: total energy           -2831.713975434063 Eh    ::
         :: gradient norm              0.454704601325 Eh/a0 ::
         :: HOMO-LUMO gap              9.452618536512 eV    ::
         ::.................................................::
         :: add. restraining           0.000000000000 Eh    ::
         :: total charge              -0.000000000000 e     ::
         :::::::::::::::::::::::::::::::::::::::::::::::::::::

           -------------------------------------------------
          |                Property Printout                |
           -------------------------------------------------

    * Orbital Energies and Occupations
------------------------------------------------------------------
      #    Occupation            Energy/Eh            Energy/eV
------------------------------------------------------------------
      1        2.0000           -1.3513052             -36.7709
    ...           ...                  ...                  ...
    145        2.0000           -0.3794403             -10.3251
    146        2.0000           -0.3774723             -10.2715
    147        2.0000           -0.3723657             -10.1326
    148        2.0000           -0.3710063             -10.0956
    149        2.0000           -0.3667011              -9.9784
    150        2.0000           -0.3644617              -9.9175
    151        2.0000           -0.3605715              -9.8116
    152        2.0000           -0.3603962              -9.8069
    153        2.0000           -0.3592385              -9.7754
    154        2.0000           -0.3579358              -9.7399
    155        2.0000           -0.3528765              -9.6023
    156        2.0000           -0.3520355              -9.5794
    157        2.0000           -0.3466028              -9.4315 (HOMO)
    158                          0.0007746               0.0211 (LUMO)
    159                          0.0026426               0.0719
    160                          0.0111792               0.3042
    161                          0.0150863               0.4105
    162                          0.0221857               0.6037
    163                          0.0264631               0.7201
    164                          0.0301447               0.8203
    165                          0.0364946               0.9931
    166                          0.0414588               1.1282
    167                          0.0477628               1.2997
    168                          0.0493970               1.3442
    ...                                ...                  ...
    277                          0.7515815              20.4516
------------------------------------------------------------------
               HL-Gap            0.3473773 Eh            9.4526 eV
------------------------------------------------------------------

Atomic charges and shell populations (in atomic units):
------------------------------------------------------
     #    Z                q          p(s)       p(p)
------------------------------------------------------
     1    7 N      -0.320863      1.362804   3.958059
     2    6 C       0.000231      1.120560   2.879209
     3    6 C       0.400986      1.111220   2.487795
     4    8 O      -0.561027      1.866963   4.694064
     5    7 N      -0.310900      1.386644   3.924256
     6    6 C      -0.039220      1.121051   2.918169
     7    6 C       0.413474      1.091150   2.495376
     8    6 C       0.005606      1.125381   2.869013
     9    8 O      -0.529082      1.859790   4.669292
    10    7 N      -0.319291      1.350751   3.968540
    11    6 C      -0.183022      1.155100   3.027922
    12    6 C       0.411550      1.091144   2.497305
    13    6 C       0.406760      1.095462   2.497778
    14    6 C      -0.015996      1.115838   2.900158
    15    8 O      -0.539131      1.853297   4.685834
    16    8 O      -0.508350      1.855879   4.652471
    17    7 N      -0.433895      1.371074   4.062821
    18    7 N      -0.310741      1.346130   3.964611
    19    6 C      -0.169238      1.164767   3.004471
    20    6 C       0.407648      1.134166   2.458186
    21    6 C      -0.138218      1.127297   3.010921
    22    6 C       0.005019      1.115550   2.879431
    23    8 O      -0.552928      1.858728   4.694200
    24    6 C      -0.217277      1.176746   3.040531
    25    6 C      -0.257485      1.179294   3.078192
    26    7 N      -0.342515      1.395180   3.947335
    27    6 C      -0.164957      1.135508   3.029450
    28    6 C       0.417343      1.108571   2.474086
    29    6 C      -0.196953      1.155999   3.040954
    30    6 C      -0.014711      1.133654   2.881057
    31    8 O      -0.503036      1.856705   4.646331
    32    6 C       0.397726      1.107849   2.494425
    33    7 N      -0.303904      1.384280   3.919624
    34    6 C       0.094111      1.102151   2.803738
    35    8 O      -0.555433      1.847659   4.707774
    36    7 N      -0.400193      1.402024   3.998169
    37    6 C       0.418791      1.097220   2.483989
    38    8 O      -0.623338      1.816166   4.807173
    39    6 C      -0.242636      1.155581   3.087055
    40    6 C      -0.014437      1.130122   2.884315
    41    8 O      -0.531909      1.846647   4.685263
    42    7 N      -0.328900      1.362238   3.966662
    43    6 C      -0.185050      1.151329   3.033720
    44    6 C       0.452350      1.092845   2.454805
    45    6 C      -0.191101      1.159232   3.031869
    46    8 O      -0.552627      1.851143   4.701484
    47    6 C       0.396207      1.110831   2.492962
    48    8 O      -0.562001      1.863362   4.698639
    49    7 N      -0.396647      1.374648   4.021999
    50    6 C      -0.133150      1.142269   2.990881
    51    6 C      -0.209253      1.152360   3.056893
    52    6 C       0.391262      1.101424   2.507314
    53    8 O      -0.553829      1.855419   4.698410
    54    7 N      -0.400596      1.374372   4.026224
    55    6 C       0.051683      1.115850   2.832468
    56    8 O      -0.552232      1.791532   4.760700
    57    1 H       0.267190      0.732810
    58    1 H       0.142968      0.857032
    59    1 H       0.281365      0.718635
    60    1 H       0.149898      0.850102
    61    1 H       0.132416      0.867584
    62    1 H       0.259291      0.740709
    63    1 H       0.110143      0.889857
    64    1 H       0.126538      0.873462
    65    1 H       0.149917      0.850083
    66    1 H       0.234867      0.765133
    67    1 H       0.264335      0.735665
    68    1 H       0.299568      0.700432
    69    1 H       0.096140      0.903860
    70    1 H       0.083395      0.916605
    71    1 H       0.117357      0.882643
    72    1 H       0.149370      0.850630
    73    1 H       0.065542      0.934458
    74    1 H       0.083650      0.916350
    75    1 H       0.093755      0.906245
    76    1 H       0.074040      0.925960
    77    1 H       0.088172      0.911828
    78    1 H       0.104965      0.895035
    79    1 H       0.263589      0.736411
    80    1 H       0.112698      0.887302
    81    1 H       0.112873      0.887127
    82    1 H       0.116898      0.883102
    83    1 H       0.124011      0.875989
    84    1 H       0.156931      0.843069
    85    1 H       0.277256      0.722744
    86    1 H       0.099003      0.900997
    87    1 H       0.261170      0.738830
    88    1 H       0.259540      0.740460
    89    1 H       0.372018      0.627982
    90    1 H       0.096745      0.903255
    91    1 H       0.094197      0.905803
    92    1 H       0.101665      0.898335
    93    1 H       0.125067      0.874933
    94    1 H       0.256861      0.743139
    95    1 H       0.144990      0.855010
    96    1 H       0.084811      0.915189
    97    1 H       0.080380      0.919620
    98    1 H       0.156721      0.843279
    99    1 H       0.262105      0.737895
   100    1 H       0.240624      0.759376
   101    1 H       0.120354      0.879646
   102    1 H       0.087163      0.912837
   103    1 H       0.128124      0.871876
   104    1 H       0.124159      0.875841
   105    1 H       0.253243      0.746757
   106    1 H       0.262764      0.737236
   107    1 H       0.110993      0.889007
   108    1 H       0.066624      0.933376
   109    1 H       0.366869      0.633131
------------------------------------------------------


Wiberg/Mayer (AO) data.
largest (>0.10) Wiberg bond orders for each atom

 ---------------------------------------------------------------------------
     #   Z sym  total        # sym  WBO       # sym  WBO       # sym  WBO
 ---------------------------------------------------------------------------
     1   7 N    3.347 --     7 C    1.242     2 C    0.936    57 O    0.886
                             9 C    0.170
     2   6 C    3.924 --    50 C    0.989     3 C    0.957     1 N    0.936
                            58 O    0.933
     3   6 C    3.877 --     4 C    1.604     5 N    1.238     2 C    0.957
     4   8 C    1.892 --     3 C    1.604     5 N    0.160
     5   7 N    3.320 --     3 C    1.238     6 C    0.960    59 O    0.880
                             4 C    0.160
     6   6 C    3.931 --     5 N    0.960    55 C    0.958    44 C    0.943
                            60 O    0.925
     7   6 C    3.887 --     9 C    1.640     1 N    1.242     8 C    0.933
     8   6 C    3.931 --    11 C    0.971    10 N    0.958    61 O    0.937
                             7 C    0.933
     9   8 C    1.935 --     7 C    1.640     1 N    0.170
    10   7 N    3.351 --    12 C    1.261     8 C    0.958    62 O    0.889
                            15 C    0.156
    11   6 C    3.963 --    13 C    0.987     8 C    0.971    63 O    0.946
                            64 O    0.943
    12   6 C    3.875 --    15 C    1.626    10 N    1.261    14 C    0.914
    13   6 C    3.886 --    16 C    1.693    17 N    1.177    11 C    0.987
    14   6 C    3.937 --    18 N    1.001    19 C    0.964    65 O    0.923
                            12 C    0.914
    15   8 C    1.918 --    12 C    1.626    10 N    0.156
    16   8 C    1.967 --    13 C    1.693    17 N    0.174
    17   7 N    3.222 --    13 C    1.177    66 O    0.922    67 O    0.908
                            16 C    0.174
    18   7 N    3.366 --    20 C    1.248    14 C    1.001    68 O    0.858
                            23 C    0.162
    19   6 C    3.960 --    21 C    1.007    14 C    0.964    70 O    0.955
                            69 O    0.953
    20   6 C    3.850 --    23 C    1.648    18 N    1.248    22 C    0.869
    21   6 C    3.974 --    19 C    1.007    24 C    1.005    25 C    0.989
                            71 O    0.947
    22   6 C    3.936 --    27 C    1.020    26 N    0.978    72 O    0.923
                            20 C    0.869
    23   8 C    1.935 --    20 C    1.648    18 N    0.162
    24   6 C    3.959 --    21 C    1.005    75 O    0.975    74 O    0.972
                            73 O    0.972
    25   6 C    3.955 --    21 C    0.989    77 O    0.977    76 O    0.977
                            78 O    0.976
    26   7 N    3.265 --    28 C    1.158    22 C    0.978    79 O    0.885
                            31 C    0.144
    27   6 C    3.955 --    22 C    1.020    29 C    0.977    80 O    0.954
                            81 O    0.936
    28   6 C    3.867 --    31 C    1.705    26 N    1.158    30 C    0.929
    29   6 C    3.957 --    27 C    0.977    82 O    0.961    32 C    0.960
                            83 O    0.949
    30   6 C    3.924 --    34 C    0.949    33 N    0.945    84 O    0.939
                            28 C    0.929
    31   8 C    1.977 --    28 C    1.705    26 N    0.144
    32   6 C    3.858 --    35 C    1.585    36 N    1.274    29 C    0.960
    33   7 N    3.333 --    37 C    1.265    30 C    0.945    85 O    0.873
                            41 C    0.154
    34   6 C    3.912 --    39 C    1.019    38 C    0.951    30 C    0.949
                            86 O    0.945
    35   8 C    1.951 --    32 C    1.585    36 N    0.146
    36   7 N    3.268 --    32 C    1.274    87 O    0.906    88 O    0.903
                            35 C    0.146
    37   6 C    3.875 --    41 C    1.635    33 N    1.265    40 C    0.894
    38   8 C    1.853 --    34 C    0.951    89 O    0.769
    39   6 C    3.959 --    34 C    1.019    91 O    0.968    92 O    0.968
                            90 O    0.964
    40   6 C    3.937 --    43 C    1.000    42 N    0.965    93 O    0.936
                            37 C    0.894
    41   8 C    1.958 --    37 C    1.635    33 N    0.154
    42   7 N    3.311 --    44 C    1.194    40 C    0.965    94 O    0.896
                            46 C    0.158
    43   6 C    3.957 --    40 C    1.000    45 C    0.988    96 O    0.963
                            95 O    0.950
    44   6 C    3.861 --    46 C    1.641    42 N    1.194     6 C    0.943
    45   6 C    3.958 --    43 C    0.988    97 O    0.963    47 C    0.960
                            98 O    0.933
    46   8 C    1.948 --    44 C    1.641    42 N    0.158
    47   6 C    3.872 --    48 C    1.629    49 N    1.255    45 C    0.960
    48   8 C    1.888 --    47 C    1.629    49 N    0.157
    49   7 N    3.268 --    47 C    1.255   100 O    0.916    99 O    0.905
                            48 C    0.157
    50   6 C    3.962 --    51 C    1.018     2 C    0.989   102 O    0.953
                           101 O    0.950
    51   6 C    3.959 --    50 C    1.018   103 O    0.946   104 O    0.944
                            52 C    0.934
    52   6 C    3.877 --    53 C    1.636    54 N    1.273    51 C    0.934
    53   8 C    1.910 --    52 C    1.636    54 N    0.162
    54   7 N    3.278 --    52 C    1.273   105 O    0.907   106 O    0.904
                            53 C    0.162
    55   6 C    3.904 --    56 C    1.005     6 C    0.958   107 O    0.947
                           108 O    0.940
    56   8 C    1.911 --    55 C    1.005   109 O    0.805
    57   1 O    0.929 --     1 N    0.886
    58   1 O    0.980 --     2 C    0.933
    59   1 O    0.921 --     5 N    0.880
    60   1 O    0.978 --     6 C    0.925
    61   1 O    0.982 --     8 C    0.937
    62   1 O    0.933 --    10 N    0.889
    63   1 O    0.988 --    11 C    0.946
    64   1 O    0.984 --    11 C    0.943
    65   1 O    0.978 --    14 C    0.923
    66   1 O    0.945 --    17 N    0.922
    67   1 O    0.930 --    17 N    0.908
    68   1 O    0.910 --    18 N    0.858
    69   1 O    0.991 --    19 C    0.953
    70   1 O    0.993 --    19 C    0.955
    71   1 O    0.986 --    21 C    0.947
    72   1 O    0.978 --    22 C    0.923
    73   1 O    0.996 --    24 C    0.972
    74   1 O    0.993 --    24 C    0.972
    75   1 O    0.991 --    24 C    0.975
    76   1 O    0.995 --    25 C    0.977
    77   1 O    0.992 --    25 C    0.977
    78   1 O    0.989 --    25 C    0.976
    79   1 O    0.931 --    26 N    0.885
    80   1 O    0.987 --    27 C    0.954
    81   1 O    0.987 --    27 C    0.936
    82   1 O    0.986 --    29 C    0.961
    83   1 O    0.985 --    29 C    0.949
    84   1 O    0.975 --    30 C    0.939
    85   1 O    0.923 --    33 N    0.873
    86   1 O    0.990 --    34 C    0.945
    87   1 O    0.932 --    36 N    0.906
    88   1 O    0.933 --    36 N    0.903
    89   1 O    0.862 --    38 C    0.769
    90   1 O    0.991 --    39 C    0.964
    91   1 O    0.991 --    39 C    0.968
    92   1 O    0.990 --    39 C    0.968
    93   1 O    0.984 --    40 C    0.936
    94   1 O    0.934 --    42 N    0.896
    95   1 O    0.979 --    43 C    0.950
    96   1 O    0.993 --    43 C    0.963
    97   1 O    0.994 --    45 C    0.963
    98   1 O    0.975 --    45 C    0.933
    99   1 O    0.931 --    49 N    0.905
   100   1 O    0.942 --    49 N    0.916
   101   1 O    0.986 --    50 C    0.950
   102   1 O    0.992 --    50 C    0.953
   103   1 O    0.984 --    51 C    0.946
   104   1 O    0.985 --    51 C    0.944
   105   1 O    0.936 --    54 N    0.907
   106   1 O    0.931 --    54 N    0.904
   107   1 O    0.988 --    55 C    0.947
   108   1 O    0.996 --    55 C    0.940
   109   1 O    0.865 --    56 C    0.805
 ---------------------------------------------------------------------------

Topologies differ in total number of bonds
Writing topology from bond orders to xtbtopo.mol

Atomic dipole moments (in atomic units):
---------------------------------------------------------
     #    Z                 x            y            z
---------------------------------------------------------
           total    -0.816021    -3.386231     2.619048
---------------------------------------------------------
         |total|     4.357966    11.076844 Debye


           -------------------------------------------------
          | TOTAL ENERGY            -2831.713975434063 Eh   |
          | GRADIENT NORM               0.454704601325 Eh/α |
           -------------------------------------------------

------------------------------------------------------------------------
 * finished run on 2026/05/23 at 12:54:09.686     
------------------------------------------------------------------------
 total:
 * wall-time:     0 d,  0 h,  0 min, 14.029 sec
 *  cpu-time:     0 d,  0 h,  0 min, 39.156 sec
 * ratio c/w:     2.791 speedup
 SCF:
 * wall-time:     0 d,  0 h,  0 min, 13.046 sec
 *  cpu-time:     0 d,  0 h,  0 min, 38.792 sec
 * ratio c/w:     2.973 speedup

normal termination of xtb
