      -----------------------------------------------------------      
     |                   =====================                   |     
     |                           x T B                           |     
     |                   =====================                   |     
     |                         S. Grimme                         |     
     |          Mulliken Center for Theoretical Chemistry        |     
     |                    University of Bonn                     |     
      -----------------------------------------------------------      

   * xtb version 6.7.1 (edcfbbe) compiled by 'albert@albert-system' on 2024-07-22

   xtb is free software: you can redistribute it and/or modify it under
   the terms of the GNU Lesser General Public License as published by
   the Free Software Foundation, either version 3 of the License, or
   (at your option) any later version.
   
   xtb is distributed in the hope that it will be useful,
   but WITHOUT ANY WARRANTY; without even the implied warranty of
   MERCHANTABILITY or FITNESS FOR A PARTICULAR PURPOSE.  See the
   GNU Lesser General Public License for more details.
   
   Cite this work as:
   * C. Bannwarth, E. Caldeweyher, S. Ehlert, A. Hansen, P. Pracht,
     J. Seibert, S. Spicher, S. Grimme, WIREs Comput. Mol. Sci., 2020, 11,
     e01493. DOI: 10.1002/wcms.1493
   
   for GFN2-xTB:
   * C. Bannwarth, S. Ehlert and S. Grimme., J. Chem. Theory Comput., 2019,
     15, 1652-1671. DOI: 10.1021/acs.jctc.8b01176
   for GFN1-xTB:
   * S. Grimme, C. Bannwarth, P. Shushkov, J. Chem. Theory Comput., 2017,
     13, 1989-2009. DOI: 10.1021/acs.jctc.7b00118
   for GFN0-xTB:
   * P. Pracht, E. Caldeweyher, S. Ehlert, S. Grimme, ChemRxiv, 2019, preprint.
     DOI: 10.26434/chemrxiv.8326202.v1
   for GFN-FF:
   * S. Spicher and S. Grimme, Angew. Chem. Int. Ed., 2020, 59, 15665-15673.
     DOI: 10.1002/anie.202004239
   
   for ALPB and GBSA implicit solvation:
   * S. Ehlert, M. Stahn, S. Spicher, S. Grimme, J. Chem. Theory Comput.,
     2021, 17, 4250-4261. DOI: 10.1021/acs.jctc.1c00471
   
   for ddCOSMO and CPCM-X implicit solvation:
   * M. Stahn, S. Ehlert, S. Grimme, J. Phys. Chem. A,
     2023, XX, XXXX-XXXX. DOI: 10.1021/acs.jpca.3c04382
   
   for DFT-D4:
   * E. Caldeweyher, C. Bannwarth and S. Grimme, J. Chem. Phys., 2017,
     147, 034112. DOI: 10.1063/1.4993215
   * E. Caldeweyher, S. Ehlert, A. Hansen, H. Neugebauer, S. Spicher,
     C. Bannwarth and S. Grimme, J. Chem. Phys., 2019, 150, 154122.
     DOI: 10.1063/1.5090222
   * E. Caldeweyher, J.-M. Mewes, S. Ehlert and S. Grimme, Phys. Chem. Chem. Phys.
     2020, 22, 8499-8512. DOI: 10.1039/D0CP00502A
   
   for sTDA-xTB:
   * S. Grimme and C. Bannwarth, J. Chem. Phys., 2016, 145, 054103.
     DOI: 10.1063/1.4959605
   
   in the mass-spec context:
   * V. Asgeirsson, C. Bauer and S. Grimme, Chem. Sci., 2017, 8, 4879.
     DOI: 10.1039/c7sc00601b
   * J. Koopman and S. Grimme, ACS Omega 2019, 4, 12, 15120-15133.
     DOI: 10.1021/acsomega.9b02011
   
   for metadynamics refer to:
   * S. Grimme, J. Chem. Theory Comput., 2019, 155, 2847-2862
     DOI: 10.1021/acs.jctc.9b00143
   
   for SPH calculations refer to:
   * S. Spicher and S. Grimme, J. Chem. Theory Comput., 2021, 17, 1701-1714
     DOI: 10.1021/acs.jctc.0c01306
   
   for ONIOM refer to:
   * C. Plett, A. Katbashev, S. Ehlert, S. Grimme, M. Bursch,
     Phys. Chem. Chem. Phys., 2023, 25, 17860-17868. DOI: 10.1039/D3CP02178E
   
   for DIPRO refer to:
   * J. Kohn, N. Gildemeister, S. Grimme, D. Fazzi, A. Hansen,
     J. Chem. Phys., 2023, just accepted.
   
   for PTB refer to:
   * S. Grimme, M. Mueller, A. Hansen, J. Chem. Phys., 2023, 158, 124111.
     DOI: 10.1063/5.0137838
   
   with help from (in alphabetical order)
   P. Atkinson, C. Bannwarth, F. Bohle, G. Brandenburg, E. Caldeweyher
   M. Checinski, S. Dohm, S. Ehlert, S. Ehrlich, I. Gerasimov, C. Hölzer
   A. Katbashev, J. Kohn, J. Koopman, C. Lavigne, S. Lehtola, F. März, M. Müller,
   F. Musil, H. Neugebauer, J. Pisarek, C. Plett, P. Pracht, F. Pultar,
   J. Seibert, P. Shushkov, S. Spicher, M. Stahn, M. Steiner, T. Strunk,
   J. Stückrath, T. Rose, and J. Unsleber
   
 * started run on 2026/05/23 at 12:53:16.515     
   ID    Z sym.   atoms
    1    7 N      1, 5, 10, 17, 27, 34, 39, 43, 54, 56, 57
    2    6 C      2, 3, 6-8, 11-14, 16, 18, 21-23, 28-31, 33, 35-38, 40,
                  44-48, 50-53, 55, 58
    3    8 O      4, 9, 15, 19, 20, 24-26, 32, 41, 49
    4   16 S      42
    5    1 H      59-117

           -------------------------------------------------
          |                Calculation Setup                |
           -------------------------------------------------

          program call               : /home/xchen/software/xtb-6.7.1/xtb-dist/bin/xtb /home/xchen/Test/benchmark/md_sampled/04_7_0231_n2/snap_0120.xyz --charge -2 --gfn 2 --norestart
          coordinate file            : /home/xchen/Test/benchmark/md_sampled/04_7_0231_n2/snap_0120.xyz
          omp threads                :                    48


           -------------------------------------------------
          |                 G F N 2 - x T B                 |
           -------------------------------------------------

        Reference                      10.1021/acs.jctc.8b01176
      * Hamiltonian:
        H0-scaling (s, p, d)           1.850000    2.230000    2.230000
        zeta-weighting                 0.500000
      * Dispersion:
        s8                             2.700000
        a1                             0.520000
        a2                             5.000000
        s9                             5.000000
      * Repulsion:
        kExp                           1.500000    1.000000
        rExp                           1.000000
      * Coulomb:
        alpha                          2.000000
        third order                    shell-resolved
        anisotropic                    true
        a3                             3.000000
        a5                             4.000000
        cn-shift                       1.200000
        cn-exp                         4.000000
        max-rad                        5.000000


          ...................................................
          :                      SETUP                      :
          :.................................................:
          :  # basis functions                 297          :
          :  # atomic orbitals                 296          :
          :  # shells                          176          :
          :  # electrons                       328          :
          :  max. iterations                   250          :
          :  Hamiltonian                  GFN2-xTB          :
          :  restarted?                      false          :
          :  GBSA solvation                  false          :
          :  PC potential                    false          :
          :  electronic temp.          300.0000000     K    :
          :  accuracy                    1.0000000          :
          :  -> integral cutoff          0.2500000E+02      :
          :  -> integral neglect         0.1000000E-07      :
          :  -> SCF convergence          0.1000000E-05 Eh   :
          :  -> wf. convergence          0.1000000E-03 e    :
          :  Broyden damping             0.4000000          :
          :  net charge                         -2          :
          :  unpaired electrons                  0          :
          ...................................................

 iter      E             dE          RMSdq      gap      omega  full diag
   1   -186.9781618 -0.186978E+03  0.420E+00    3.74       0.0  T
   2   -187.5083300 -0.530168E+00  0.223E+00    2.30       1.0  T
   3   -187.5422586 -0.339286E-01  0.123E+00    1.68       1.0  T
   4   -187.5519416 -0.968301E-02  0.281E-01    0.40       1.0  T
   5   -187.5563094 -0.436777E-02  0.126E-01    0.53       1.0  T
   6   -187.5566059 -0.296518E-03  0.447E-02    0.61       1.0  T
   7   -187.5566216 -0.157572E-04  0.175E-02    0.65       1.0  T
   8   -187.5566285 -0.691935E-05  0.740E-03    0.66       1.2  T
   9   -187.5566295 -0.994598E-06  0.257E-03    0.65       3.6  T
  10   -187.5566297 -0.171073E-06  0.114E-03    0.65       8.1  T
  11   -187.5566297 -0.254462E-07  0.420E-04    0.65      22.0  T
  12   -187.5566297 -0.308791E-08  0.189E-04    0.65      48.9  T

   *** convergence criteria satisfied after 12 iterations ***

         #    Occupation            Energy/Eh            Energy/eV
      -------------------------------------------------------------
         1        2.0000           -0.5976914             -16.2640
       ...           ...                  ...                  ...
       158        2.0000           -0.2123354              -5.7779
       159        2.0000           -0.1966502              -5.3511
       160        2.0000           -0.1957713              -5.3272
       161        2.0000           -0.1942475              -5.2857
       162        2.0000           -0.1688027              -4.5934
       163        2.0000           -0.1522432              -4.1427
       164        2.0000           -0.1287059              -3.5023 (HOMO)
       165        0.0000           -0.1047626              -2.8507 (LUMO)
       166                         -0.0988485              -2.6898
       167                         -0.0850094              -2.3132
       168                         -0.0829885              -2.2582
       169                         -0.0824257              -2.2429
       ...                                ...                  ...
       296                          1.0514841              28.6123
      -------------------------------------------------------------
                  HL-Gap            0.0239433 Eh            0.6515 eV
             Fermi-level           -0.1167352 Eh           -3.1765 eV

 SCC (total)                   0 d,  0 h,  0 min, 12.133 sec
 SCC setup                      ...        0 min,  0.058 sec (  0.481%)
 Dispersion                     ...        0 min,  0.182 sec (  1.500%)
 classical contributions        ...        0 min,  0.010 sec (  0.082%)
 integral evaluation            ...        0 min,  0.422 sec (  3.476%)
 iterations                     ...        0 min, 10.759 sec ( 88.678%)
 molecular gradient             ...        0 min,  0.689 sec (  5.679%)
 printout                       ...        0 min,  0.012 sec (  0.103%)

         :::::::::::::::::::::::::::::::::::::::::::::::::::::
         ::                     SUMMARY                     ::
         :::::::::::::::::::::::::::::::::::::::::::::::::::::
         :: total energy            -185.512016328200 Eh    ::
         :: gradient norm              0.422533480037 Eh/a0 ::
         :: HOMO-LUMO gap              0.651530052306 eV    ::
         ::.................................................::
         :: SCC energy              -187.550580444911 Eh    ::
         :: -> isotropic ES            0.713867595053 Eh    ::
         :: -> anisotropic ES          0.005066322918 Eh    ::
         :: -> anisotropic XC          0.061711209953 Eh    ::
         :: -> dispersion             -0.138617497846 Eh    ::
         :: repulsion energy           2.038564116711 Eh    ::
         :: add. restraining           0.000000000000 Eh    ::
         :: total charge              -2.000000000000 e     ::
         :::::::::::::::::::::::::::::::::::::::::::::::::::::

           -------------------------------------------------
          |                Property Printout                |
           -------------------------------------------------

    * Orbital Energies and Occupations

         #    Occupation            Energy/Eh            Energy/eV
      -------------------------------------------------------------
         1        2.0000           -0.5976914             -16.2640
       ...           ...                  ...                  ...
       152        2.0000           -0.2490008              -6.7757
       153        2.0000           -0.2467159              -6.7135
       154        2.0000           -0.2387805              -6.4975
       155        2.0000           -0.2322994              -6.3212
       156        2.0000           -0.2292497              -6.2382
       157        2.0000           -0.2189887              -5.9590
       158        2.0000           -0.2123354              -5.7779
       159        2.0000           -0.1966502              -5.3511
       160        2.0000           -0.1957713              -5.3272
       161        2.0000           -0.1942475              -5.2857
       162        2.0000           -0.1688027              -4.5934
       163        2.0000           -0.1522432              -4.1427
       164        2.0000           -0.1287059              -3.5023 (HOMO)
       165        0.0000           -0.1047626              -2.8507 (LUMO)
       166                         -0.0988485              -2.6898
       167                         -0.0850094              -2.3132
       168                         -0.0829885              -2.2582
       169                         -0.0824257              -2.2429
       170                         -0.0798314              -2.1723
       171                         -0.0723564              -1.9689
       172                         -0.0707111              -1.9241
       173                         -0.0521146              -1.4181
       174                         -0.0192844              -0.5248
       175                         -0.0155950              -0.4244
       ...                                ...                  ...
       296                          1.0514841              28.6123
      -------------------------------------------------------------
                  HL-Gap            0.0239433 Eh            0.6515 eV
             Fermi-level           -0.1167352 Eh           -3.1765 eV

     #   Z          covCN         q      C6AA      α(0)
     1   7 N        2.690    -0.200    25.356     7.479
     2   6 C        3.799     0.047    19.796     6.335
     3   6 C        2.763     0.292    22.052     7.690
     4   8 O        0.865    -0.457    22.840     6.408
     5   7 N        2.698    -0.167    24.617     7.369
     6   6 C        3.803     0.008    20.446     6.437
     7   6 C        2.749     0.280    22.265     7.726
     8   6 C        3.782     0.029    20.111     6.388
     9   8 O        0.858    -0.422    22.119     6.306
    10   7 N        2.697    -0.164    24.555     7.360
    11   6 C        3.818    -0.065    21.733     6.635
    12   6 C        2.752     0.250    22.805     7.820
    13   6 C        3.808    -0.089    22.199     6.707
    14   6 C        3.809     0.068    19.442     6.276
    15   8 O        0.855    -0.508    23.969     6.564
    16   6 C        2.690     0.387    20.446     7.400
    17   7 N        1.841    -0.403    31.446     8.311
    18   6 C        3.793    -0.103    22.472     6.751
    19   8 O        0.860    -0.621    26.642     6.920
    20   8 O        0.860    -0.584    25.737     6.802
    21   6 C        2.797     0.259    22.642     7.795
    22   6 C        2.676     0.342    21.185     7.532
    23   6 C        3.798     0.030    20.080     6.381
    24   8 O        0.860    -0.629    26.834     6.945
    25   8 O        0.856    -0.439    22.472     6.356
    26   8 O        1.617    -0.385    20.573     6.122
    27   7 N        2.702    -0.175    24.790     7.395
    28   6 C        3.798    -0.057    21.599     6.617
    29   6 C        2.746     0.256    22.698     7.801
    30   6 C        3.785    -0.049    21.465     6.599
    31   6 C        3.775     0.027    20.152     6.396
    32   8 O        0.856    -0.475    23.248     6.464
    33   6 C        3.810    -0.052    21.504     6.601
    34   7 N        2.686    -0.176    24.816     7.399
    35   6 C        3.811    -0.057    21.593     6.614
    36   6 C        3.643     0.050    20.076     6.441
    37   6 C        2.738     0.256    22.685     7.798
    38   6 C        3.792    -0.012    20.808     6.496
    39   7 N        2.634    -0.384    29.927     8.125
    40   6 C        3.786     0.003    20.542     6.455
    41   8 O        0.857    -0.479    23.335     6.477
    42  16 S        1.941    -0.207   149.868    20.604
    43   7 N        2.676    -0.253    26.587     7.658
    44   6 C        3.845    -0.025    20.985     6.516
    45   6 C        3.740    -0.047    21.499     6.616
    46   6 C        2.748     0.279    22.279     7.729
    47   6 C        3.741    -0.118    22.840     6.819
    48   6 C        3.799    -0.053    21.522     6.605
    49   8 O        0.858    -0.392    21.524     6.220
    50   6 C        3.750    -0.096    22.387     6.748
    51   6 C        3.804    -0.060    21.660     6.626
    52   6 C        3.791    -0.058    21.637     6.624
    53   6 C        3.728     0.011    20.491     6.463
    54   7 N        2.685    -0.202    25.392     7.484
    55   6 C        2.733     0.222    23.318     7.906
    56   7 N        1.776    -0.432    32.243     8.409
    57   7 N        2.643    -0.326    28.384     7.912
    58   6 C        3.757    -0.136    23.163     6.862
    59   1 H        0.858     0.223     0.998     1.565
    60   1 H        0.917     0.040     2.448     2.447
    61   1 H        0.861     0.193     1.140     1.672
    62   1 H        0.927     0.117     1.640     2.002
    63   1 H        0.913     0.032     2.558     2.502
    64   1 H        0.861     0.200     1.105     1.646
    65   1 H        0.925     0.070     2.083     2.257
    66   1 H        0.928     0.048     2.348     2.396
    67   1 H        0.923     0.003     3.000     2.709
    68   1 H        0.926     0.004     2.990     2.704
    69   1 H        0.920     0.038     2.476     2.461
    70   1 H        0.772     0.336     0.629     1.249
    71   1 H        0.927     0.053     2.286     2.364
    72   1 H        0.927     0.067     2.117     2.275
    73   1 H        0.922     0.051     2.313     2.379
    74   1 H        0.861     0.213     1.044     1.600
    75   1 H        0.926     0.021     2.712     2.575
    76   1 H        0.916     0.044     2.395     2.421
    77   1 H        0.907     0.041     2.437     2.442
    78   1 H        0.917     0.025     2.653     2.548
    79   1 H        0.914     0.039     2.463     2.455
    80   1 H        0.921     0.037     2.490     2.468
    81   1 H        0.927     0.014     2.823     2.628
    82   1 H        0.855     0.189     1.167     1.692
    83   1 H        0.926     0.058     2.217     2.328
    84   1 H        0.926     0.080     1.974     2.197
    85   1 H        0.918    -0.009     3.221     2.807
    86   1 H        0.842    -0.034     3.751     3.036
    87   1 H        0.928     0.055     2.255     2.348
    88   1 H        0.924     0.042     2.427     2.436
    89   1 H        0.860     0.215     1.031     1.591
    90   1 H        0.862     0.142     1.458     1.891
    91   1 H        0.926     0.076     2.025     2.225
    92   1 H        0.861     0.175     1.245     1.748
    93   1 H        0.926     0.053     2.284     2.363
    94   1 H        0.926     0.064     2.153     2.294
    95   1 H        0.925     0.050     2.317     2.381
    96   1 H        0.920     0.037     2.486     2.466
    97   1 H        0.929     0.048     2.343     2.394
    98   1 H        0.910     0.025     2.655     2.549
    99   1 H        0.925     0.042     2.426     2.436
   100   1 H        0.925     0.030     2.584     2.514
   101   1 H        0.923     0.036     2.498     2.472
   102   1 H        0.925     0.043     2.405     2.425
   103   1 H        0.919     0.029     2.602     2.523
   104   1 H        0.925     0.037     2.493     2.469
   105   1 H        0.915     0.052     2.300     2.372
   106   1 H        0.928     0.062     2.175     2.306
   107   1 H        0.918     0.025     2.664     2.553
   108   1 H        0.919     0.045     2.378     2.412
   109   1 H        0.922     0.054     2.271     2.357
   110   1 H        0.920     0.017     2.784     2.610
   111   1 H        0.858     0.162     1.324     1.803
   112   1 H        0.856     0.113     1.685     2.034
   113   1 H        0.862     0.166     1.299     1.785
   114   1 H        0.861     0.179     1.221     1.731
   115   1 H        0.927     0.113     1.673     2.023
   116   1 H        0.927     0.041     2.431     2.438
   117   1 H        0.927     0.044     2.397     2.421

 Mol. C6AA /au·bohr⁶  :     136811.948055
 Mol. C8AA /au·bohr⁸  :    3099303.976905
 Mol. α(0) /au        :        552.487312


Wiberg/Mayer (AO) data.
largest (>0.10) Wiberg bond orders for each atom

 ---------------------------------------------------------------------------
     #   Z sym  total        # sym  WBO       # sym  WBO       # sym  WBO
 ---------------------------------------------------------------------------
     1   7 N    3.423 --     7 C    1.261     2 C    0.985    59 H    0.880
                             9 O    0.195
     2   6 C    3.978 --    51 C    0.995     1 N    0.985     3 C    0.949
                            60 H    0.942
     3   6 C    3.953 --     4 O    1.642     5 N    1.274     2 C    0.949
     4   8 O    1.972 --     3 C    1.642     5 N    0.188
     5   7 N    3.450 --     3 C    1.274     6 C    0.967    61 H    0.932
                             4 O    0.188
     6   6 C    3.960 --    46 C    1.000    58 C    0.980     5 N    0.967
                            62 H    0.899
     7   6 C    3.946 --     9 O    1.697     1 N    1.261     8 C    0.910
     8   6 C    3.956 --    11 C    0.989    10 N    0.982    63 H    0.945
                             7 C    0.910
     9   8 O    2.043 --     7 C    1.697     1 N    0.195
    10   7 N    3.474 --    12 C    1.305     8 C    0.982    64 H    0.916
                            15 O    0.179
    11   6 C    3.978 --    13 C    0.999     8 C    0.989    66 H    0.969
                            65 H    0.958
    12   6 C    3.935 --    15 O    1.575    10 N    1.305    14 C    0.946
    13   6 C    3.968 --    11 C    0.999    67 H    0.974    68 H    0.971
                            16 C    0.898
    14   6 C    3.984 --    17 N    1.023    18 C    0.959    12 C    0.946
                            69 H    0.945
    15   8 O    1.918 --    12 C    1.575    10 N    0.179
    16   6 C    3.946 --    20 O    1.557    19 O    1.466    13 C    0.898
    17   7 N    3.051 --    21 C    1.518    14 C    1.023    24 O    0.219
                            70 H    0.141
    18   6 C    3.986 --    72 H    0.975    71 H    0.960    14 C    0.959
                            22 C    0.948
    19   8 O    1.827 --    16 C    1.466    20 O    0.223
    20   8 O    1.863 --    16 C    1.557    19 O    0.223
    21   6 C    3.965 --    17 N    1.518    24 O    1.417    23 C    0.951
    22   6 C    3.917 --    25 O    1.716    26 O    1.216    18 C    0.948
    23   6 C    3.945 --    28 C    0.969    73 H    0.954    27 N    0.954
                            21 C    0.951
    24   8 O    1.801 --    21 C    1.417    17 N    0.219
    25   8 O    1.989 --    22 C    1.716    26 O    0.170
    26   8 O    2.218 --    22 C    1.216    70 H    0.722    25 O    0.170
    27   7 N    3.498 --    29 C    1.362    23 C    0.954    74 H    0.879
                            32 O    0.205
    28   6 C    3.991 --    30 C    1.002    75 H    0.974    23 C    0.969
                            76 H    0.969
    29   6 C    3.960 --    32 O    1.607    27 N    1.362    31 C    0.918
    30   6 C    3.983 --    33 C    1.020    28 C    1.002    78 H    0.964
                            77 H    0.954
    31   6 C    3.954 --    35 C    0.998    34 N    0.951    79 H    0.939
                            29 C    0.918
    32   8 O    1.942 --    29 C    1.607    27 N    0.205
    33   6 C    3.991 --    30 C    1.020    36 C    0.999    81 H    0.973
                            80 H    0.964
    34   7 N    3.475 --    37 C    1.343    31 C    0.951    82 H    0.895
                            41 O    0.198
    35   6 C    3.987 --    38 C    1.014    31 C    0.998    83 H    0.962
                            84 H    0.960
    36   6 C    3.988 --    39 N    1.045    33 C    0.999    85 H    0.960
                            86 H    0.959
    37   6 C    3.947 --    41 O    1.618    34 N    1.343    40 C    0.906
    38   6 C    3.974 --    35 C    1.014    42 S    0.980    88 H    0.973
                            87 H    0.973
    39   7 N    2.982 --    36 C    1.045    90 H    0.961    89 H    0.879
    40   6 C    3.961 --    43 N    0.981    44 C    0.972    91 H    0.958
                            37 C    0.906
    41   8 O    1.941 --    37 C    1.618    34 N    0.198
    42  16 S    2.078 --    45 C    1.013    38 C    0.980
    43   7 N    3.353 --    46 C    1.107    40 C    0.981    92 H    0.938
                            49 O    0.194
    44   6 C    3.987 --    47 C    0.997    48 C    0.987    40 C    0.972
                            93 H    0.968
    45   6 C    3.969 --    42 S    1.013    94 H    0.980    96 H    0.979
                            95 H    0.973
    46   6 C    3.947 --    49 O    1.756    43 N    1.107     6 C    1.000
    47   6 C    3.984 --    44 C    0.997    97 H    0.984    98 H    0.982
                            99 H    0.977
    48   6 C    3.994 --    50 C    1.029    44 C    0.987   100 H    0.975
                           101 H    0.974
    49   8 O    2.082 --    46 C    1.756    43 N    0.194
    50   6 C    3.997 --    48 C    1.029   104 H    0.987   103 H    0.983
                           102 H    0.978
    51   6 C    3.990 --    52 C    0.999     2 C    0.995   106 H    0.971
                           105 H    0.970
    52   6 C    3.988 --    51 C    0.999    53 C    0.998   107 H    0.976
                           108 H    0.975
    53   6 C    3.970 --    54 N    1.004    52 C    0.998   109 H    0.965
                           110 H    0.965
    54   7 N    3.336 --    55 C    1.151    53 C    1.004   111 H    0.937
                            56 N    0.161
    55   6 C    3.962 --    56 N    1.687    54 N    1.151    57 N    1.094
    56   7 N    2.930 --    55 C    1.687   112 H    0.953    54 N    0.161
    57   7 N    3.139 --    55 C    1.094   114 H    0.950   113 H    0.946
    58   6 C    3.980 --   116 H    0.985   117 H    0.982     6 C    0.980
                           115 H    0.968
    59   1 H    0.950 --     1 N    0.880
    60   1 H    0.998 --     2 C    0.942
    61   1 H    0.963 --     5 N    0.932
    62   1 H    0.985 --     6 C    0.899
    63   1 H    0.999 --     8 C    0.945
    64   1 H    0.960 --    10 N    0.916
    65   1 H    0.995 --    11 C    0.958
    66   1 H    0.997 --    11 C    0.969
    67   1 H    1.000 --    13 C    0.974
    68   1 H    1.000 --    13 C    0.971
    69   1 H    0.998 --    14 C    0.945
    70   1 H    0.887 --    26 O    0.722    17 N    0.141
    71   1 H    0.997 --    18 C    0.960
    72   1 H    0.995 --    18 C    0.975
    73   1 H    0.997 --    23 C    0.954
    74   1 H    0.955 --    27 N    0.879
    75   1 H    0.999 --    28 C    0.974
    76   1 H    0.998 --    28 C    0.969
    77   1 H    0.998 --    30 C    0.954
    78   1 H    0.999 --    30 C    0.964
    79   1 H    0.998 --    31 C    0.939
    80   1 H    0.999 --    33 C    0.964
    81   1 H    1.000 --    33 C    0.973
    82   1 H    0.964 --    34 N    0.895
    83   1 H    0.996 --    35 C    0.962
    84   1 H    0.993 --    35 C    0.960
    85   1 H    1.000 --    36 C    0.960
    86   1 H    0.998 --    36 C    0.959
    87   1 H    0.997 --    38 C    0.973
    88   1 H    0.998 --    38 C    0.973
    89   1 H    0.954 --    39 N    0.879
    90   1 H    0.980 --    39 N    0.961
    91   1 H    0.994 --    40 C    0.958
    92   1 H    0.969 --    43 N    0.938
    93   1 H    0.997 --    44 C    0.968
    94   1 H    0.996 --    45 C    0.980
    95   1 H    0.997 --    45 C    0.973
    96   1 H    0.999 --    45 C    0.979
    97   1 H    0.998 --    47 C    0.984
    98   1 H    0.999 --    47 C    0.982
    99   1 H    0.998 --    47 C    0.977
   100   1 H    0.999 --    48 C    0.975
   101   1 H    0.999 --    48 C    0.974
   102   1 H    0.998 --    50 C    0.978
   103   1 H    0.999 --    50 C    0.983
   104   1 H    0.999 --    50 C    0.987
   105   1 H    0.997 --    51 C    0.970
   106   1 H    0.995 --    51 C    0.971
   107   1 H    0.999 --    52 C    0.976
   108   1 H    0.997 --    52 C    0.975
   109   1 H    0.997 --    53 C    0.965
   110   1 H    0.999 --    53 C    0.965
   111   1 H    0.974 --    54 N    0.937
   112   1 H    0.987 --    56 N    0.953
   113   1 H    0.973 --    57 N    0.946
   114   1 H    0.968 --    57 N    0.950
   115   1 H    0.987 --    58 C    0.968
   116   1 H    0.998 --    58 C    0.985
   117   1 H    0.998 --    58 C    0.982
 ---------------------------------------------------------------------------

Topologies differ in total number of bonds
Writing topology from bond orders to xtbtopo.mol

molecular dipole:
                 x           y           z       tot (Debye)
 q only:        1.577      10.983       1.865
   full:        2.440      10.821       1.610      28.490
molecular quadrupole (traceless):
                xx          xy          yy          xz          yz          zz
 q only:        4.752      37.367     -74.299      45.725     -98.985      69.547
  q+dip:      -12.186      50.537     -69.675      56.362     -93.922      81.860
   full:      -14.071      50.613     -67.270      55.215     -94.450      81.341


           -------------------------------------------------
          | TOTAL ENERGY             -185.512016328200 Eh   |
          | GRADIENT NORM               0.422533480037 Eh/α |
          | HOMO-LUMO GAP               0.651530052306 eV   |
           -------------------------------------------------

------------------------------------------------------------------------
 * finished run on 2026/05/23 at 12:53:29.497     
------------------------------------------------------------------------
 total:
 * wall-time:     0 d,  0 h,  0 min, 12.981 sec
 *  cpu-time:     0 d,  0 h,  0 min, 26.076 sec
 * ratio c/w:     2.009 speedup
 SCF:
 * wall-time:     0 d,  0 h,  0 min, 12.135 sec
 *  cpu-time:     0 d,  0 h,  0 min, 25.014 sec
 * ratio c/w:     2.061 speedup

normal termination of xtb
