      -----------------------------------------------------------      
     |                   =====================                   |     
     |                           x T B                           |     
     |                   =====================                   |     
     |                         S. Grimme                         |     
     |          Mulliken Center for Theoretical Chemistry        |     
     |                    University of Bonn                     |     
      -----------------------------------------------------------      

   * xtb version 6.7.1 (26dd68d) compiled by 'froitzheim@fs7' on 2026-05-14

   xtb is free software: you can redistribute it and/or modify it under
   the terms of the GNU Lesser General Public License as published by
   the Free Software Foundation, either version 3 of the License, or
   (at your option) any later version.
   
   xtb is distributed in the hope that it will be useful,
   but WITHOUT ANY WARRANTY; without even the implied warranty of
   MERCHANTABILITY or FITNESS FOR A PARTICULAR PURPOSE.  See the
   GNU Lesser General Public License for more details.
   
   Cite this work as:
   * C. Bannwarth, E. Caldeweyher, S. Ehlert, A. Hansen, P. Pracht,
     J. Seibert, S. Spicher, S. Grimme, WIREs Comput. Mol. Sci., 2020, 11,
     e01493. DOI: 10.1002/wcms.1493
   
   for g-xTB:
   * T. Froitzheim, M. Müller, A. Hansen, S. Grimme, ChemRxiv, 2025, preprint.
     DOI: 10.26434/chemrxiv-2025-bjxv
   for GFN2-xTB:
   * C. Bannwarth, S. Ehlert and S. Grimme., J. Chem. Theory Comput., 2019,
     15, 1652-1671. DOI: 10.1021/acs.jctc.8b01176
   for GFN1-xTB:
   * S. Grimme, C. Bannwarth, P. Shushkov, J. Chem. Theory Comput., 2017,
     13, 1989-2009. DOI: 10.1021/acs.jctc.7b00118
   for GFN0-xTB:
   * P. Pracht, E. Caldeweyher, S. Ehlert, S. Grimme, ChemRxiv, 2019, preprint.
     DOI: 10.26434/chemrxiv.8326202.v1
   for GFN-FF:
   * S. Spicher and S. Grimme, Angew. Chem. Int. Ed., 2020, 59, 15665-15673.
     DOI: 10.1002/anie.202004239
   
   for ALPB and GBSA implicit solvation:
   * S. Ehlert, M. Stahn, S. Spicher, S. Grimme, J. Chem. Theory Comput.,
     2021, 17, 4250-4261. DOI: 10.1021/acs.jctc.1c00471
   
   for ddCOSMO and CPCM-X implicit solvation:
   * M. Stahn, S. Ehlert, S. Grimme, J. Phys. Chem. A,
     2023, XX, XXXX-XXXX. DOI: 10.1021/acs.jpca.3c04382
   
   for DFT-D4:
   * E. Caldeweyher, C. Bannwarth and S. Grimme, J. Chem. Phys., 2017,
     147, 034112. DOI: 10.1063/1.4993215
   * E. Caldeweyher, S. Ehlert, A. Hansen, H. Neugebauer, S. Spicher,
     C. Bannwarth and S. Grimme, J. Chem. Phys., 2019, 150, 154122.
     DOI: 10.1063/1.5090222
   * E. Caldeweyher, J.-M. Mewes, S. Ehlert and S. Grimme, Phys. Chem. Chem. Phys.
     2020, 22, 8499-8512. DOI: 10.1039/D0CP00502A
   
   for sTDA-xTB:
   * S. Grimme and C. Bannwarth, J. Chem. Phys., 2016, 145, 054103.
     DOI: 10.1063/1.4959605
   
   in the mass-spec context:
   * V. Asgeirsson, C. Bauer and S. Grimme, Chem. Sci., 2017, 8, 4879.
     DOI: 10.1039/c7sc00601b
   * J. Koopman and S. Grimme, ACS Omega 2019, 4, 12, 15120-15133.
     DOI: 10.1021/acsomega.9b02011
   
   for metadynamics refer to:
   * S. Grimme, J. Chem. Theory Comput., 2019, 155, 2847-2862
     DOI: 10.1021/acs.jctc.9b00143
   
   for SPH calculations refer to:
   * S. Spicher and S. Grimme, J. Chem. Theory Comput., 2021, 17, 1701-1714
     DOI: 10.1021/acs.jctc.0c01306
   
   for ONIOM refer to:
   * C. Plett, A. Katbashev, S. Ehlert, S. Grimme, M. Bursch,
     Phys. Chem. Chem. Phys., 2023, 25, 17860-17868. DOI: 10.1039/D3CP02178E
   
   for DIPRO refer to:
   * J. Kohn, N. Gildemeister, S. Grimme, D. Fazzi, A. Hansen,
     J. Chem. Phys. 159, 144106 (2023). DOI: 10.1063/5.0167484
   
   for PTB refer to:
   * S. Grimme, M. Mueller, A. Hansen, J. Chem. Phys., 2023, 158, 124111.
     DOI: 10.1063/5.0137838
   
   with help from (in alphabetical order)
   P. Atkinson, C. Bannwarth, F. Bohle, G. Brandenburg, E. Caldeweyher,
   M. Checinski, S. Dohm, S. Ehlert, S. Ehrlich, M. Friede, T. Froitzheim,
   I. Gerasimov, C. Hölzer, A. Katbashev, J. Kohn, J. Koopman, C. Lavigne,
   S. Lehtola, F. März, M. Müller, F. Musil, H. Neugebauer, J. Pisarek,
   C. Plett, P. Pracht, F. Pultar, J. Seibert, P. Shushkov, S. Spicher,
   M. Stahn, M. Steiner, T. Strunk, J. Stückrath, T. Rose, and J. Unsleber
   
 * started run on 2026/05/23 at 12:54:22.185     
   ID    Z sym.   atoms
    1    7 N      1, 5, 10, 17, 27, 34, 39, 43, 54, 56, 57
    2    6 C      2, 3, 6-8, 11-14, 16, 18, 21-23, 28-31, 33, 35-38, 40,
                  44-48, 50-53, 55, 58
    3    8 O      4, 9, 15, 19, 20, 24-26, 32, 41, 49
    4   16 S      42
    5    1 H      59-117

           -------------------------------------------------
          |                Calculation Setup                |
           -------------------------------------------------

          program call               : /home/xchen/software/xtb-6.7.1-gxtb/bin/xtb /home/xchen/Test/benchmark/md_sampled/04_7_0231_n2/snap_0125.xyz --charge -2 --gxtb --norestart
          coordinate file            : /home/xchen/Test/benchmark/md_sampled/04_7_0231_n2/snap_0125.xyz
          omp threads                :                    48

core increment energy         -2.9312527735450E+03 Eh
dispersion energy              2.3761886881270E-02 Eh
molecular charge              -2.0000000000000E+00 e
number of electrons            3.2799999999710E+02 e
number of unpaired electrons   0.0000000000000E+00 e
wavefunction                   restricted
integral cutoff                2.6907767250513E+01 bohr
energy convergence             1.0000000000000E-06 Eh
density convergence            2.0000000000000E-05 e

------------------------------------------------------------
  cycle        total energy    energy error   density error
------------------------------------------------------------
      1     -3195.835418387  -2.6460641E+02   0.0000000E+00
      2     -3196.340789283  -5.0537090E-01   2.0074233E-02
      3     -3196.661354754  -3.2056547E-01   1.5745262E-02
      4     -3197.332147515  -6.7079276E-01   1.2419369E-02
      5     -3197.342695536  -1.0548021E-02   8.9944183E-04
      6     -3197.343525039  -8.2950260E-04   1.6799981E-04
      7     -3197.343597916  -7.2877524E-05   4.9568009E-05
      8     -3197.343603881  -5.9647271E-06   1.6286727E-05
      9     -3197.343604634  -7.5265876E-07   2.6705968E-06
------------------------------------------------------------

electronic energy             -2.6611459297540E+02 Eh
total energy                  -3.1973436046335E+03 Eh

Post processing:
 | Mayer-Wiberg bond orders
 | Molecular Multipole Moments

 total:                                  25.211 sec
 - increment                              0.000 sec (  0%)
 - repulsion                              0.008 sec (  0%)
 - dispersion                             0.393 sec (  1%)
 - coulomb                                0.143 sec (  0%)
 - exchange                               0.008 sec (  0%)
 - hamiltonian                           13.903 sec ( 55%)
 - acp                                    0.306 sec (  1%)
 - spin polarization                      0.000 sec (  0%)
 - post processing                        0.025 sec (  0%)
 - scc                                    9.157 sec ( 36%)
 - coulomb gradient                       0.075 sec (  0%)
 - dispersion gradient                    0.032 sec (  0%)
 - exchange gradient                      0.142 sec (  0%)
 - repulsion gradient                     0.013 sec (  0%)
 - acp gradient                           0.377 sec (  1%)
 - hamiltonian gradient                   0.490 sec (  1%)
 - gradient                               1.130 sec (  4%)

         :::::::::::::::::::::::::::::::::::::::::::::::::::::
         ::                     SUMMARY                     ::
         :::::::::::::::::::::::::::::::::::::::::::::::::::::
         :: total energy           -3197.343604633519 Eh    ::
         :: gradient norm              0.453551475266 Eh/a0 ::
         :: HOMO-LUMO gap              5.980305752761 eV    ::
         ::.................................................::
         :: add. restraining           0.000000000000 Eh    ::
         :: total charge              -2.000000000000 e     ::
         :::::::::::::::::::::::::::::::::::::::::::::::::::::

           -------------------------------------------------
          |                Property Printout                |
           -------------------------------------------------

    * Orbital Energies and Occupations
------------------------------------------------------------------
      #    Occupation            Energy/Eh            Energy/eV
------------------------------------------------------------------
      1        2.0000           -1.1993068             -32.6348
    ...           ...                  ...                  ...
    152        2.0000           -0.2073618              -5.6426
    153        2.0000           -0.2060736              -5.6075
    154        2.0000           -0.2051249              -5.5817
    155        2.0000           -0.1996821              -5.4336
    156        2.0000           -0.1979620              -5.3868
    157        2.0000           -0.1870953              -5.0911
    158        2.0000           -0.1799130              -4.8957
    159        2.0000           -0.1711840              -4.6582
    160        2.0000           -0.1635711              -4.4510
    161        2.0000           -0.1585119              -4.3133
    162        2.0000           -0.1405907              -3.8257
    163        2.0000           -0.1224630              -3.3324
    164        2.0000           -0.1013270              -2.7572 (HOMO)
    165                          0.1184452               3.2231 (LUMO)
    166                          0.1464530               3.9852
    167                          0.1648029               4.4845
    168                          0.1671608               4.5487
    169                          0.1808115               4.9201
    170                          0.1859796               5.0608
    171                          0.1946216               5.2959
    172                          0.1988542               5.4111
    173                          0.2087113               5.6793
    174                          0.2164807               5.8907
    175                          0.2205532               6.0016
    ...                                ...                  ...
    296                          0.9648776              26.2557
------------------------------------------------------------------
               HL-Gap            0.2197722 Eh            5.9803 eV
------------------------------------------------------------------

Atomic charges and shell populations (in atomic units):
-----------------------------------------------------------------
     #    Z                q          p(s)       p(p)       p(d)
-----------------------------------------------------------------
     1    7 N      -0.332417      1.356243   3.976174
     2    6 C       0.030162      1.103317   2.866521
     3    6 C       0.430780      1.097651   2.471570
     4    8 O      -0.584872      1.863385   4.721487
     5    7 N      -0.303584      1.334049   3.969535
     6    6 C      -0.000626      1.099755   2.900872
     7    6 C       0.413887      1.114711   2.471402
     8    6 C       0.005324      1.132444   2.862231
     9    8 O      -0.584396      1.859703   4.724693
    10    7 N      -0.309162      1.365402   3.943760
    11    6 C      -0.188624      1.163460   3.025165
    12    6 C       0.418658      1.107539   2.473804
    13    6 C      -0.218959      1.187712   3.031247
    14    6 C      -0.006303      1.117157   2.889146
    15    8 O      -0.614499      1.849959   4.764540
    16    6 C       0.528642      1.075725   2.395633
    17    7 N      -0.522211      1.560395   3.961816
    18    6 C      -0.192656      1.157520   3.035137
    19    8 O      -0.675513      1.841052   4.834461
    20    8 O      -0.693354      1.854547   4.838808
    21    6 C       0.373394      1.108243   2.518363
    22    6 C       0.532325      1.084592   2.383083
    23    6 C       0.016845      1.123371   2.859784
    24    8 O      -0.678172      1.858951   4.819221
    25    8 O      -0.509064      1.846029   4.663035
    26    8 O      -0.577912      1.800003   4.777909
    27    7 N      -0.349697      1.371472   3.978225
    28    6 C      -0.172562      1.149796   3.022766
    29    6 C       0.410456      1.107932   2.481612
    30    6 C      -0.169212      1.145048   3.024164
    31    6 C      -0.004332      1.139189   2.865143
    32    8 O      -0.525701      1.848462   4.677239
    33    6 C      -0.184697      1.158600   3.026097
    34    7 N      -0.330225      1.354306   3.975919
    35    6 C      -0.194922      1.145511   3.049411
    36    6 C      -0.076438      1.153892   2.922546
    37    6 C       0.407033      1.088485   2.504481
    38    6 C      -0.120572      1.174221   2.946351
    39    7 N      -0.551855      1.462584   4.089270
    40    6 C       0.012817      1.140214   2.846969
    41    8 O      -0.568221      1.848576   4.719645
    42   16 S      -0.207970      1.885812   4.244437   0.077721
    43    7 N      -0.374845      1.387643   3.987202
    44    6 C      -0.106973      1.134525   2.972448
    45    6 C      -0.187353      1.185616   3.001737
    46    6 C       0.417943      1.122517   2.459540
    47    6 C      -0.276369      1.173559   3.102810
    48    6 C      -0.214349      1.160190   3.054159
    49    8 O      -0.538309      1.861214   4.677094
    50    6 C      -0.260214      1.189015   3.071199
    51    6 C      -0.186661      1.139593   3.047067
    52    6 C      -0.190110      1.145063   3.045047
    53    6 C      -0.067042      1.143583   2.923460
    54    7 N      -0.374796      1.346183   4.028613
    55    6 C       0.279956      1.080537   2.639508
    56    7 N      -0.560284      1.571828   3.988456
    57    7 N      -0.470446      1.432277   4.038169
    58    6 C      -0.265227      1.178166   3.087060
    59    1 H       0.307676      0.692324
    60    1 H       0.105359      0.894641
    61    1 H       0.295629      0.704371
    62    1 H       0.145900      0.854100
    63    1 H       0.107846      0.892154
    64    1 H       0.290537      0.709463
    65    1 H       0.113607      0.886393
    66    1 H       0.110318      0.889682
    67    1 H       0.113431      0.886569
    68    1 H       0.068289      0.931711
    69    1 H       0.114873      0.885127
    70    1 H       0.393913      0.606087
    71    1 H       0.126767      0.873233
    72    1 H       0.110681      0.889319
    73    1 H       0.103902      0.896098
    74    1 H       0.281156      0.718844
    75    1 H       0.077431      0.922569
    76    1 H       0.098675      0.901325
    77    1 H       0.128729      0.871271
    78    1 H       0.074707      0.925293
    79    1 H       0.114923      0.885077
    80    1 H       0.103342      0.896658
    81    1 H       0.079038      0.920962
    82    1 H       0.270964      0.729036
    83    1 H       0.115306      0.884694
    84    1 H       0.126517      0.873483
    85    1 H       0.070225      0.929775
    86    1 H       0.047178      0.952822
    87    1 H       0.115836      0.884164
    88    1 H       0.080894      0.919106
    89    1 H       0.279501      0.720499
    90    1 H       0.198972      0.801028
    91    1 H       0.153052      0.846948
    92    1 H       0.246725      0.753275
    93    1 H       0.103736      0.896264
    94    1 H       0.105702      0.894298
    95    1 H       0.117853      0.882147
    96    1 H       0.075682      0.924318
    97    1 H       0.091932      0.908068
    98    1 H       0.099101      0.900899
    99    1 H       0.095894      0.904106
   100    1 H       0.099570      0.900430
   101    1 H       0.125150      0.874850
   102    1 H       0.089790      0.910210
   103    1 H       0.103448      0.896552
   104    1 H       0.074050      0.925950
   105    1 H       0.143001      0.856999
   106    1 H       0.096779      0.903221
   107    1 H       0.089202      0.910798
   108    1 H       0.118616      0.881384
   109    1 H       0.089869      0.910131
   110    1 H       0.075235      0.924765
   111    1 H       0.259207      0.740793
   112    1 H       0.212866      0.787134
   113    1 H       0.240037      0.759963
   114    1 H       0.251421      0.748579
   115    1 H       0.162455      0.837545
   116    1 H       0.057150      0.942850
   117    1 H       0.093840      0.906160
-----------------------------------------------------------------


Wiberg/Mayer (AO) data.
largest (>0.10) Wiberg bond orders for each atom

 ---------------------------------------------------------------------------
     #   Z sym  total        # sym  WBO       # sym  WBO       # sym  WBO
 ---------------------------------------------------------------------------
     1   7 N    3.349 --     7 C    1.288     2 C    0.975    59 N    0.817
                             9 C    0.151
     2   6 C    3.954 --     1 N    0.975    51 C    0.970     3 C    0.961
                            60 N    0.941
     3   6 C    3.873 --     4 C    1.592     5 N    1.231     2 C    0.961
     4   8 C    1.871 --     3 C    1.592     5 N    0.148
     5   7 N    3.353 --     3 C    1.231     6 C    1.000    61 N    0.872
                             4 C    0.148
     6   6 C    3.939 --     5 N    1.000    58 C    0.984    46 C    0.937
                            62 N    0.913
     7   6 C    3.850 --     9 C    1.579     1 N    1.288     8 C    0.891
     8   6 C    3.922 --    11 C    0.979    10 N    0.978    63 N    0.938
                             7 C    0.891
     9   8 C    1.884 --     7 C    1.579     1 N    0.151
    10   7 N    3.395 --    12 C    1.290     8 C    0.978    64 N    0.849
                            15 C    0.155
    11   6 C    3.945 --    13 C    1.001     8 C    0.979    66 N    0.956
                            65 N    0.951
    12   6 C    3.860 --    15 C    1.532    10 N    1.290    14 C    0.942
    13   6 C    3.948 --    11 C    1.001    68 N    0.965    67 N    0.958
                            16 C    0.876
    14   6 C    3.966 --    17 N    0.995    18 C    0.977    12 C    0.942
                            69 N    0.938
    15   8 C    1.883 --    12 C    1.532    10 N    0.155
    16   6 C    3.853 --    20 C    1.488    19 C    1.468    13 C    0.876
    17   7 N    2.975 --    21 C    1.440    14 C    0.995    24 C    0.182
                            70 N    0.175
    18   6 C    3.960 --    14 C    0.977    72 N    0.961    22 C    0.942
                            71 N    0.930
    19   8 C    1.832 --    16 C    1.468    20 C    0.189
    20   8 C    1.761 --    16 C    1.488    19 C    0.189
    21   6 C    3.896 --    24 C    1.444    17 N    1.440    23 C    0.932
    22   6 C    3.821 --    25 C    1.760    26 C    1.078    18 C    0.942
    23   6 C    3.923 --    28 C    0.985    27 N    0.946    73 N    0.934
                            21 C    0.932
    24   8 C    1.784 --    21 C    1.444    17 N    0.182
    25   8 C    2.015 --    22 C    1.760    26 C    0.151
    26   8 C    1.999 --    22 C    1.078    70 N    0.649    25 C    0.151
    27   7 N    3.352 --    29 C    1.264    23 C    0.946    74 N    0.853
                            32 C    0.175
    28   6 C    3.964 --    30 C    1.004    23 C    0.985    75 N    0.956
                            76 N    0.946
    29   6 C    3.870 --    32 C    1.673    27 N    1.264    31 C    0.859
    30   6 C    3.962 --    33 C    1.010    28 C    1.004    78 N    0.959
                            77 N    0.942
    31   6 C    3.923 --    35 C    0.992    34 N    0.962    79 N    0.937
                            29 C    0.859
    32   8 C    1.991 --    29 C    1.673    27 N    0.175
    33   6 C    3.966 --    30 C    1.010    36 C    0.985    81 N    0.966
                            80 N    0.955
    34   7 N    3.345 --    37 C    1.247    31 C    0.962    82 N    0.870
                            41 C    0.168
    35   6 C    3.958 --    38 C    1.007    31 C    0.992    83 N    0.945
                            84 N    0.944
    36   6 C    3.959 --    39 N    1.027    33 C    0.985    86 N    0.965
                            85 N    0.961
    37   6 C    3.885 --    41 C    1.619    34 N    1.247    40 C    0.948
    38   6 C    3.938 --    35 C    1.007    42 O    0.978    88 N    0.960
                            87 N    0.952
    39   7 N    2.918 --    36 C    1.027    90 N    0.947    89 N    0.843
    40   6 C    3.921 --    44 C    0.971    43 N    0.951    37 C    0.948
                            91 N    0.921
    41   8 C    1.904 --    37 C    1.619    34 N    0.168
    42  16 O    2.107 --    45 C    1.012    38 C    0.978
    43   7 N    3.278 --    46 C    1.166    40 C    0.951    92 N    0.900
                            49 C    0.148
    44   6 C    3.971 --    48 C    1.007    47 C    0.992    40 C    0.971
                            93 N    0.944
    45   6 C    3.928 --    42 O    1.012    94 N    0.966    96 N    0.966
                            95 N    0.956
    46   6 C    3.848 --    49 C    1.668    43 N    1.166     6 C    0.937
    47   6 C    3.954 --    44 C    0.992    97 N    0.980    99 N    0.968
                            98 N    0.965
    48   6 C    3.957 --    44 C    1.007    50 C    0.997   100 N    0.960
                           101 N    0.951
    49   8 C    1.939 --    46 C    1.668    43 N    0.148
    50   6 C    3.956 --    48 C    0.997   104 N    0.980   103 N    0.977
                           102 N    0.969
    51   6 C    3.956 --    52 C    1.012     2 C    0.970   106 N    0.954
                           105 N    0.949
    52   6 C    3.961 --    51 C    1.012    53 C    1.006   107 N    0.955
                           108 N    0.952
    53   6 C    3.925 --    52 C    1.006    54 N    0.969   110 N    0.955
                           109 N    0.949
    54   7 N    3.234 --    55 C    1.135    53 C    0.969   111 N    0.898
                            56 N    0.127
    55   6 C    3.944 --    56 N    1.689    54 N    1.135    57 N    1.094
    56   7 N    2.875 --    55 C    1.689   112 N    0.914    54 N    0.127
    57   7 N    3.079 --    55 C    1.094   114 N    0.915   113 N    0.913
    58   6 C    3.943 --     6 C    0.984   116 N    0.975   117 N    0.971
                           115 N    0.953
    59   1 N    0.905 --     1 N    0.817
    60   1 N    0.989 --     2 C    0.941
    61   1 N    0.913 --     5 N    0.872
    62   1 N    0.979 --     6 C    0.913
    63   1 N    0.988 --     8 C    0.938
    64   1 N    0.916 --    10 N    0.849
    65   1 N    0.987 --    11 C    0.951
    66   1 N    0.988 --    11 C    0.956
    67   1 N    0.987 --    13 C    0.958
    68   1 N    0.995 --    13 C    0.965
    69   1 N    0.987 --    14 C    0.938
    70   1 N    0.845 --    26 C    0.649    17 N    0.175
    71   1 N    0.984 --    18 C    0.930
    72   1 N    0.988 --    18 C    0.961
    73   1 N    0.989 --    23 C    0.934
    74   1 N    0.921 --    27 N    0.853
    75   1 N    0.994 --    28 C    0.956
    76   1 N    0.990 --    28 C    0.946
    77   1 N    0.983 --    30 C    0.942
    78   1 N    0.994 --    30 C    0.959
    79   1 N    0.987 --    31 C    0.937
    80   1 N    0.989 --    33 C    0.955
    81   1 N    0.994 --    33 C    0.966
    82   1 N    0.927 --    34 N    0.870
    83   1 N    0.987 --    35 C    0.945
    84   1 N    0.984 --    35 C    0.944
    85   1 N    0.995 --    36 C    0.961
    86   1 N    0.998 --    36 C    0.965
    87   1 N    0.987 --    38 C    0.952
    88   1 N    0.993 --    38 C    0.960
    89   1 N    0.922 --    39 N    0.843
    90   1 N    0.960 --    39 N    0.947
    91   1 N    0.977 --    40 C    0.921
    92   1 N    0.939 --    43 N    0.900
    93   1 N    0.989 --    44 C    0.944
    94   1 N    0.989 --    45 C    0.966
    95   1 N    0.986 --    45 C    0.956
    96   1 N    0.994 --    45 C    0.966
    97   1 N    0.992 --    47 C    0.980
    98   1 N    0.990 --    47 C    0.965
    99   1 N    0.991 --    47 C    0.968
   100   1 N    0.990 --    48 C    0.960
   101   1 N    0.984 --    48 C    0.951
   102   1 N    0.992 --    50 C    0.969
   103   1 N    0.989 --    50 C    0.977
   104   1 N    0.995 --    50 C    0.980
   105   1 N    0.980 --    51 C    0.949
   106   1 N    0.991 --    51 C    0.954
   107   1 N    0.992 --    52 C    0.955
   108   1 N    0.986 --    52 C    0.952
   109   1 N    0.992 --    53 C    0.949
   110   1 N    0.994 --    53 C    0.955
   111   1 N    0.933 --    54 N    0.898
   112   1 N    0.955 --    56 N    0.914
   113   1 N    0.942 --    57 N    0.913
   114   1 N    0.937 --    57 N    0.915
   115   1 N    0.974 --    58 C    0.953
   116   1 N    0.997 --    58 C    0.975
   117   1 N    0.991 --    58 C    0.971
 ---------------------------------------------------------------------------

Topologies differ in total number of bonds
Writing topology from bond orders to xtbtopo.mol

Atomic dipole moments (in atomic units):
---------------------------------------------------------
     #    Z                 x            y            z
---------------------------------------------------------
           total    -0.435106    12.846065     2.028518
---------------------------------------------------------
         |total|    13.012516    33.074517 Debye


           -------------------------------------------------
          | TOTAL ENERGY            -3197.343604633519 Eh   |
          | GRADIENT NORM               0.453551475266 Eh/α |
           -------------------------------------------------

------------------------------------------------------------------------
 * finished run on 2026/05/23 at 12:54:48.172     
------------------------------------------------------------------------
 total:
 * wall-time:     0 d,  0 h,  0 min, 25.987 sec
 *  cpu-time:     0 d,  0 h,  1 min,  4.481 sec
 * ratio c/w:     2.481 speedup
 SCF:
 * wall-time:     0 d,  0 h,  0 min, 25.627 sec
 *  cpu-time:     0 d,  0 h,  1 min,  3.986 sec
 * ratio c/w:     2.497 speedup

normal termination of xtb
