109
pH=7.30 total_charge=0 partial_charge_sum=+0.000000 method=gasteiger energy=-545.59683400
N  -1.57307954  4.21794358  1.10410265
C  -0.12753978  4.52385737  0.95557568
C   0.42249258  3.30701761  0.27761926
O   0.43096976  2.24196400  0.85374573
N   0.59852535  3.38011191 -1.05330681
C   0.49664770  2.20072621 -1.79849195
C  -2.49320772  4.25611130  0.09214161
C  -3.68846334  3.37118117  0.35362045
O  -2.38135803  4.89831610 -0.93101023
N  -3.47325696  1.94835304  0.63163621
C  -4.44127130  3.82329095  1.55057867
C  -2.90530228  0.97361956 -0.24298147
C  -4.67755483  5.35488302  1.80699060
C  -2.66664027 -0.52140581  0.09464946
O  -2.58349349  1.36660314 -1.37214132
O  -4.28178814  5.90632424  2.84038937
N  -5.25924802  5.99307246  0.81905486
N  -1.90016230 -1.17698122 -0.89062677
C  -2.23746384 -0.77142321  1.50221190
C  -2.22289088 -2.37165879 -1.53643567
C  -2.29914887 -2.21670199  1.97558704
C  -1.32891828 -3.03686041 -2.59654160
O  -3.19402728 -2.98516849 -1.04986309
C  -1.12579371 -2.51357293  2.93038902
C  -3.73279013 -2.44121444  2.60646290
N   0.06470513 -3.01515232 -2.24204694
C  -1.98490091 -4.33096615 -2.94897303
C   1.11149900 -3.02117948 -3.21211329
C  -2.08447849 -5.46000156 -1.81668998
C   2.50231445 -3.24599529 -2.63944096
O   0.89546319 -3.12179127 -4.38666106
C  -1.16144784 -6.69386226 -1.97771185
N   2.88231391 -2.27493007 -1.52297238
C   2.64742524 -4.69630384 -2.03736303
O   0.01075350 -6.72348665 -1.67448811
N  -1.81253412 -7.76329193 -2.38561501
C   3.21177982 -1.03739683 -1.89931932
O   1.85486638 -4.76653067 -0.84519094
C   3.97651149 -5.18056786 -1.58678701
C   3.64568756  0.06285098 -1.05782301
O   3.20116177 -0.80399548 -3.10041206
N   2.72031405  1.23888014 -1.16984794
C   4.03312601 -0.27056713  0.44490455
C   1.36055175  1.04877491 -1.21027348
C   2.83674320 -0.46453186  1.40365214
O   0.87465013 -0.03949070 -0.97144378
C   3.22380765 -0.21368161  2.91197430
O   3.96875702  0.80402454  3.15825979
N   2.81979508 -1.07592295  3.82660414
C   0.44423070  4.77722103  2.38697560
C   1.99608916  4.63244089  2.51168477
C   2.63646986  5.74532347  1.64190116
O   1.93364960  6.57015409  1.08951491
N   3.99223723  5.77805299  1.46985360
C   1.03816631  2.58106389 -3.24520408
O   0.87337075  1.66284153 -4.22791230
H  -1.65774235  3.45322599  1.74940635
H  -0.00469271  5.37210328  0.26361239
H   0.20005118  4.22430366 -1.40573050
H  -0.45394030  1.69756475 -1.95197078
H  -4.21044967  3.48249316 -0.58146063
H  -3.36853095  1.59632826  1.58366620
H  -4.04395339  3.44981649  2.44734335
H  -5.37752127  3.30502995  1.59775209
H  -3.72469873 -0.88903742 -0.11231373
H  -5.76169385  5.33686605  0.26265572
H  -5.52777901  6.95531679  1.04435638
H  -1.00866439 -0.67208761 -1.11938234
H  -1.36924576 -0.19199782  1.70082989
H  -3.02449324 -0.30121417  2.10081952
H  -2.17916273 -2.78175239  0.91399093
H  -1.37362466 -2.41790331 -3.49159072
H  -0.18821432 -2.54146681  2.40356796
H  -1.03214010 -1.65906688  3.61904694
H  -1.19219474 -3.32594382  3.62690041
H  -3.82451409 -2.03383578  3.56714081
H  -3.86375915 -3.48965422  2.60987794
H  -4.53401709 -1.92767961  1.96228352
H   0.12153590 -3.10858901 -1.20843298
H  -3.03929053 -3.98782176 -3.13606435
H  -1.52074442 -4.80502170 -3.79473386
H  -3.13073960 -5.73615100 -1.66649766
H  -1.85786426 -5.03754028 -0.86912526
H   3.20830707 -2.94859768 -3.50715778
H   2.52241846 -2.33412427 -0.57187906
H   2.23869567 -5.45810827 -2.73496098
H  -1.48913986 -8.71708959 -2.42669022
H  -2.79711580 -7.85431501 -2.38416372
H   1.04894409 -5.40886153 -1.02628616
H   4.35377960 -4.37330623 -0.97436084
H   4.73407686 -5.42671883 -2.37712941
H   3.75041405 -6.05970432 -0.93695549
H   4.64610326  0.36815842 -1.56423262
H   3.03202472  1.96511549 -1.70954587
H   4.54438682  0.74597321  0.84520119
H   4.69221015 -1.17752689  0.38158464
H   2.20139944 -1.33240946  1.37802098
H   2.01746451  0.29210482  1.27274104
H   2.93001523 -0.94932171  4.78971422
H   2.38657908 -1.92365302  3.59906202
H   0.09147801  5.73752174  2.81985815
H   0.05847321  4.11980205  3.17090005
H   2.25940507  4.71565846  3.63126325
H   2.24927207  3.64017823  2.25343497
H   4.65872904  5.16320613  2.00830336
H   4.45759945  6.47152952  0.91416388
H   0.36836668  3.44804468 -3.55753250
H   1.95431200  3.08603615 -3.21328271
H   1.21835429  0.82676141 -4.08863924
