109
pH=7.30 total_charge=0 partial_charge_sum=+0.000000 method=gasteiger energy=-544.45620900
N  -1.49263338  3.79511311  1.04959784
C  -0.10413042  4.17101247  0.67622646
C   0.40795095  3.00597389 -0.20080252
O   0.17517608  1.89134273  0.04051901
N   0.98041770  3.38072080 -1.35187857
C   1.23372722  2.46902912 -2.43814949
C  -2.47168335  3.95449596  0.13907454
C  -3.74154598  3.17890358  0.49477716
O  -2.37855559  4.65499478 -0.86607599
N  -3.49129851  1.75936693  0.80912552
C  -4.46944637  3.80620092  1.57015599
C  -2.86392097  1.11750719 -0.13462153
C  -4.75610226  5.31601480  1.23901232
C  -2.63548049 -0.41843091  0.25819347
O  -2.71604813  1.68775534 -1.19814081
O  -4.22146139  6.20181666  1.92246053
N  -5.40975135  5.68996736  0.07627754
N  -1.82944641 -1.11693059 -0.69721291
C  -2.07108389 -0.48687025  1.61779526
C  -2.29392474 -2.29743428 -1.16394450
C  -1.32998675 -1.75189607  2.22308223
C  -1.29165707 -3.10842732 -1.99033300
O  -3.44807969 -2.71966287 -1.09181113
C  -1.16059070 -1.48704026  3.76200379
C  -2.10346959 -3.06114134  2.10282291
N   0.12355985 -2.81895593 -1.76452690
C  -1.73082653 -4.54122023 -2.13265595
C   1.00047963 -3.16335605 -2.84510380
C  -1.95871508 -5.33759829 -0.79708603
C   2.49239694 -3.37248060 -2.46479720
O   0.62952598 -3.60053609 -3.93244055
C  -1.52300549 -6.78394562 -0.95145724
N   2.86330996 -2.28387450 -1.37498898
C   2.67763450 -4.72550795 -1.86410053
O  -0.29280852 -7.04781054 -0.94772536
N  -2.55160086 -7.65760478 -0.91884082
C   3.62999316 -1.20724191 -1.68946552
O   1.82327490 -4.92787179 -0.69951827
C   4.08405008 -5.06447539 -1.41258001
C   3.70408896  0.05877817 -0.65671035
O   4.10299906 -1.04699180 -2.79407389
N   2.95243218  1.14628447 -1.33073802
C   3.35673867 -0.10439158  0.84809255
C   1.81901105  1.01093281 -2.03148208
C   1.77021625 -0.36854203  1.11458151
O   1.51460768 -0.03794338 -2.51909848
C   1.64087275 -0.22592594  2.61560629
O   1.38845624  0.88643675  3.00919995
N   2.13521260 -1.30944486  3.34322327
C   0.70891082  4.20131145  2.06048791
C   2.15475787  4.57529669  1.79414438
C   2.24224146  5.98371254  1.32615293
O   1.64201229  6.83978461  1.85831282
N   3.15140445  6.23878489  0.30502877
C   2.17292890  3.14608286 -3.49279463
O   2.64529090  2.15604955 -4.42089360
H  -1.61172699  3.09449838  1.74123124
H  -0.12567291  5.09352928  0.02296010
H   1.03349465  4.36932430 -1.67031882
H   0.30355347  2.22198921 -2.92822169
H  -4.38574988  3.11182837 -0.36883855
H  -3.40132262  1.65163302  1.79852448
H  -4.07556663  3.73246132  2.53695835
H  -5.56147655  3.37447872  1.57096668
H  -3.59151603 -0.94487300  0.19992089
H  -5.76745095  5.06347344 -0.56896917
H  -5.35431668  6.67675868 -0.32935948
H  -0.82112432 -0.88979958 -0.92510812
H  -1.22134422  0.27470882  1.42116533
H  -2.72097659 -0.01951314  2.33052030
H  -0.34087428 -1.96038106  1.85341515
H  -1.36237765 -2.76378609 -3.00394091
H  -0.81962069 -0.36195916  3.84290033
H  -2.15893428 -1.79703614  4.19816018
H  -0.36788273 -1.98799231  4.31942759
H  -3.23983413 -2.72041947  2.07902017
H  -1.98431437 -3.70365819  3.00475042
H  -1.86953564 -3.64912676  1.28255838
H   0.38911965 -2.77403627 -0.79699670
H  -2.61933735 -4.58196612 -2.76796672
H  -1.03835402 -5.08622842 -2.73511675
H  -2.94427203 -5.15205124 -0.46707826
H  -1.24606030 -4.86785427 -0.09673967
H   3.13357735 -3.39947547 -3.31068704
H   2.29202935 -2.22325143 -0.54718706
H   2.35023086 -5.45061617 -2.59901582
H  -2.44822932 -8.58878885 -0.54756438
H  -3.40072399 -7.18347249 -0.64234691
H   1.14766292 -5.56696317 -0.98135039
H   4.14331638 -4.83464430 -0.35585634
H   4.79219972 -4.48901649 -1.97383586
H   4.50102971 -6.02473515 -1.68741051
H   4.79237571  0.32208075 -0.72165844
H   3.22468818  2.02367647 -1.00791577
H   3.72701704  0.81820500  1.28277411
H   4.03869763 -0.87225813  1.34464715
H   1.63427080 -1.50853610  0.86362873
H   1.16095775  0.30889126  0.50341827
H   2.08174730 -1.51322974  4.32897916
H   2.17842174 -2.13735346  2.84595678
H   0.16192916  4.98187549  2.63181396
H   0.81808553  3.34925312  2.74204868
H   2.82376340  4.50192628  2.68615497
H   2.67113937  3.99084541  1.08647920
H   3.25179136  5.64382226 -0.45573788
H   3.13176449  7.17762960 -0.04982398
H   1.61990685  3.91097768 -3.96714065
H   3.10495828  3.54296442 -2.98484763
H   1.89624278  1.88445978 -4.89812288
