109
pH=7.30 total_charge=0 partial_charge_sum=+0.000000 method=gasteiger energy=-545.22964650
N  -1.53961797  4.22640859  1.08057898
C  -0.13655488  4.52081832  0.95595267
C   0.42714852  3.33246659  0.25959579
O   0.44726913  2.26094296  0.89690404
N   0.57358832  3.40134934 -1.05599951
C   0.52211174  2.15805590 -1.77653225
C  -2.47396255  4.23846760  0.07254600
C  -3.65558369  3.41360739  0.36769457
O  -2.38170088  4.90393280 -0.91344804
N  -3.49358738  1.90832652  0.58729261
C  -4.45073485  3.83823086  1.56535528
C  -2.89753295  0.99651449 -0.24146802
C  -4.64377609  5.32126984  1.83404029
C  -2.70252734 -0.55387394  0.06390185
O  -2.57873525  1.32020705 -1.36776455
O  -4.28187075  5.88991348  2.83318861
N  -5.28938955  5.96638882  0.86606336
N  -1.88433727 -1.21863632 -0.86128716
C  -2.22955372 -0.76190596  1.50933952
C  -2.22656916 -2.36205042 -1.55230069
C  -2.28213880 -2.22304779  1.90497396
C  -1.35799165 -2.99189240 -2.57841610
O  -3.17881046 -2.97779028 -1.11223378
C  -1.15515483 -2.50006924  2.93278381
C  -3.72253796 -2.44671369  2.60837624
N   0.08215382 -2.95767964 -2.21877650
C  -1.96531432 -4.34417773 -2.95576585
C   1.10004480 -3.05201288 -3.17227859
C  -2.05386627 -5.42347101 -1.84605927
C   2.51061210 -3.25377472 -2.64726734
O   0.88779121 -3.11484088 -4.39905180
C  -1.13531407 -6.68994895 -2.00752657
N   2.88179161 -2.29027619 -1.50494956
C   2.63492887 -4.68761319 -2.02152867
O   0.04369495 -6.71672535 -1.68646819
N  -1.85834704 -7.78958753 -2.41479072
C   3.18870529 -1.05853370 -1.93449428
O   1.81794326 -4.78578705 -0.82991369
C   3.93539586 -5.14023874 -1.60923597
C   3.66846589  0.07886565 -1.05792399
O   3.22307799 -0.79778083 -3.11616447
N   2.71958918  1.21539728 -1.19119210
C   4.01020382 -0.26770525  0.37749218
C   1.36889926  1.04253447 -1.20448689
C   2.86552838 -0.45956637  1.40124116
O   0.84083293 -0.00722472 -0.95520954
C   3.24625957 -0.20069943  2.96247264
O   3.91476682  0.80382101  3.15435404
N   2.78906637 -1.09965667  3.82993803
C   0.41436395  4.74966816  2.42470279
C   1.94757111  4.63148384  2.52973429
C   2.66099534  5.78906326  1.62691211
O   1.93316989  6.59743015  1.12243256
N   4.00244021  5.76320507  1.44847497
C   1.02931702  2.62326216 -3.23851951
O   0.91064382  1.64867100 -4.22595479
H  -1.78436214  3.56759220  1.82498357
H  -0.04730215  5.41626285  0.35301638
H   0.22307836  4.23228703 -1.52918072
H  -0.51852445  1.74957986 -1.82184596
H  -4.29297309  3.41036037 -0.54523581
H  -3.56897168  1.53605112  1.51392056
H  -4.00261230  3.53172899  2.56122777
H  -5.46425278  3.31800651  1.61009492
H  -3.66366428 -0.98719315  0.05803429
H  -5.85599557  5.35288629  0.26848172
H  -5.63909783  6.86891113  1.09572208
H  -1.02389755 -0.70914599 -0.92407064
H  -1.23636471 -0.25350635  1.62366787
H  -3.03572276 -0.24197494  2.04713065
H  -2.22844190 -2.81365033  1.10080070
H  -1.54705314 -2.29316925 -3.44481122
H  -0.08201722 -2.53152552  2.55951620
H  -0.85118317 -1.71136820  3.62172119
H  -1.16065128 -3.41062276  3.59874430
H  -3.66566327 -1.98496871  3.63822261
H  -3.92919542 -3.55360959  2.60551440
H  -4.38515384 -1.98512843  1.93035500
H   0.25496353 -2.98026716 -1.26368558
H  -2.97334216 -4.04006157 -3.06965681
H  -1.54362111 -4.90765538 -3.82893629
H  -3.09370857 -5.71697212 -1.71598721
H  -1.78149986 -5.06833749 -0.82197413
H   3.18313534 -3.12349779 -3.41802674
H   2.54732622 -2.34910121 -0.57929641
H   2.22687496 -5.37105310 -2.80439061
H  -1.35636291 -8.67362023 -2.35057585
H  -2.88407112 -7.80748295 -2.29669544
H   1.00873443 -5.17098941 -0.99850262
H   4.47806229 -4.47502077 -0.90332916
H   4.76360051 -5.27323184 -2.27203318
H   3.68390723 -5.98899922 -1.01911998
H   4.63195440  0.23534229 -1.45063290
H   3.19099551  1.96347731 -1.79976179
H   4.62458614  0.40087911  0.84366930
H   4.64338011 -1.12114166  0.34628767
H   2.33440853 -1.44297483  1.38184921
H   2.06055030  0.22499162  1.29036469
H   2.82021728 -0.84771489  4.82643190
H   2.24620890 -1.92932507  3.57023187
H   0.06651736  5.74237040  2.64815094
H   0.18957498  4.03096368  3.25431314
H   2.21353952  4.74070098  3.52845244
H   2.44043267  3.64118705  2.21878358
H   4.61570626  5.27383420  2.00524420
H   4.42377227  6.54586027  0.96233079
H   0.49292194  3.47459213 -3.57218986
H   2.10171395  3.13259603 -3.28387427
H   1.27440226  0.71870210 -4.01500258
