109
pH=7.30 total_charge=0 partial_charge_sum=+0.000000 method=gasteiger energy=-545.87027150
N  -1.58130158  4.27136476  1.13565001
C  -0.14347560  4.64799928  1.03144168
C   0.40977288  3.35706277  0.37192024
O   0.60830878  2.34988124  1.01374764
N   0.52688768  3.40124359 -0.99509697
C   0.56576933  2.18595056 -1.84513455
C  -2.44152893  4.22265554  0.02452158
C  -3.73021160  3.29470007  0.28610741
O  -2.27272654  4.93721982 -0.94719318
N  -3.51125381  1.83883234  0.49245078
C  -4.38860612  3.71731878  1.62666875
C  -2.95257224  0.95158941 -0.42868583
C  -4.66424010  5.28321016  1.89712448
C  -2.74966603 -0.54586301  0.06748186
O  -2.48173965  1.26914669 -1.47364337
O  -4.15389620  5.80238327  2.83221537
N  -5.51124189  5.90830811  0.96917660
N  -1.84229646 -1.22241637 -0.77917091
C  -2.15322627 -0.78370803  1.53761320
C  -2.26874887 -2.34953501 -1.49631870
C  -2.23247979 -2.21317237  1.93003614
C  -1.32727451 -2.92797470 -2.56486098
O  -3.35140604 -2.86231726 -1.33346008
C  -1.16536990 -2.54407579  2.93015492
C  -3.53308638 -2.48941627  2.66279522
N   0.03681118 -2.80052206 -2.24502679
C  -1.84260608 -4.27164765 -2.99850081
C   1.05133844 -3.00883443 -3.10800952
C  -1.92674119 -5.37426229 -1.82157115
C   2.42444936 -3.31574497 -2.55035516
O   0.80473286 -3.17279455 -4.30832935
C  -1.15298165 -6.66566045 -2.03494634
N   2.84766588 -2.19275207 -1.59364418
C   2.53568097 -4.78197943 -1.87240734
O   0.06496208 -6.66841616 -1.84390834
N  -1.82070852 -7.77799176 -2.45637723
C   3.21527971 -1.04746398 -2.10504202
O   1.67354759 -4.76076837 -0.74082336
C   3.96006678 -5.01665422 -1.57495975
C   3.60652063  0.00222458 -1.08208334
O   3.14652607 -0.80086437 -3.29389608
N   2.74659860  1.18003983 -1.26930128
C   3.99895159 -0.43110486  0.38673577
C   1.38630742  1.07198631 -1.30436432
C   2.87764533 -0.68034644  1.44593783
O   0.88072879  0.03520554 -0.88617267
C   3.19117144 -0.24706233  2.88139113
O   3.77656178  0.72790700  3.21064002
N   2.68860356 -1.11123556  3.75423358
C   0.38678002  4.74129808  2.48819753
C   1.89582679  4.71436286  2.55384795
C   2.61268140  5.83730445  1.67462503
O   1.95623042  6.76253479  1.24841904
N   3.94357539  5.73348587  1.43078994
C   1.14070225  2.57650222 -3.21735366
O   1.08373728  1.56655462 -4.13284771
H  -1.72896525  3.44470222  1.80647549
H  -0.06372926  5.57894123  0.39998241
H   0.24542815  4.21408626 -1.50857301
H  -0.53011432  1.88441691 -1.96487478
H  -4.35202137  3.35350853 -0.58935181
H  -4.08344626  1.44648299  1.21894586
H  -3.73698069  3.46368793  2.45192712
H  -5.34485675  3.24690399  1.73947499
H  -3.75674273 -0.99182563 -0.07919265
H  -5.55748766  5.54339972  0.02061194
H  -5.67477873  6.94582992  0.86175041
H  -1.05182491 -0.60367962 -1.06734501
H  -1.12181885 -0.44271124  1.37810072
H  -2.63538324 -0.12425696  2.28215436
H  -2.15985091 -2.84276314  0.94719733
H  -1.65012404 -2.23826511 -3.37097133
H  -0.08146988 -2.38506546  2.64040229
H  -1.04520612 -1.76982919  3.77507727
H  -1.07703614 -3.45146007  3.43903969
H  -3.39352881 -1.97559783  3.69184330
H  -3.54815258 -3.51797255  2.78031672
H  -4.34944051 -2.16382525  2.10466640
H   0.27393727 -2.63032859 -1.23440612
H  -2.86255016 -4.14307117 -3.45873712
H  -1.10777315 -4.77962932 -3.67148178
H  -2.93814407 -5.49689215 -1.41261459
H  -1.36561367 -5.00085749 -0.92777811
H   3.07779871 -3.28996221 -3.47878579
H   3.04834695 -2.35189576 -0.59384993
H   2.10843932 -5.42062922 -2.55680794
H  -1.26695435 -8.59630443 -2.30196472
H  -2.78689957 -7.66517275 -2.29272542
H   0.99249888 -5.50965997 -1.01581332
H   4.31729602 -4.52080959 -0.62893023
H   4.64683932 -4.54989428 -2.23962530
H   4.20798366 -6.08876785 -1.35912053
H   4.60327650  0.23229276 -1.44456103
H   3.12504555  2.10692709 -1.49794834
H   4.62887561  0.33718506  0.95123619
H   4.75729517 -1.27255049  0.44265523
H   2.44958822 -1.69217928  1.42072210
H   1.95488189  0.02934235  1.18429475
H   2.73357414 -0.59696542  4.63211511
H   1.88129060 -1.70995932  3.49440185
H  -0.22976453  5.52611663  2.98484294
H   0.32373833  3.76943517  2.90391780
H   2.29050962  4.86765179  3.58545671
H   2.31721579  3.77432794  2.24640402
H   4.50609918  5.18004739  2.12059991
H   4.27263672  6.67913694  1.12610537
H   0.40068933  3.32853766 -3.65193461
H   2.11451267  3.14780140 -3.20641455
H   1.88270431  0.90489742 -4.24218415
