109
pH=7.30 total_charge=0 partial_charge_sum=+0.000000 method=gasteiger energy=-544.54995900
N  -1.56615458  3.76010659  1.10465085
C  -0.19653545  3.90301145  0.72018810
C   0.32858207  2.71219964 -0.18875479
O  -0.10015382  1.64154989 -0.12090455
N   1.14923437  3.16343843 -1.29021629
C   1.18476539  2.29103368 -2.51452682
C  -2.61259730  4.02146824  0.23967804
C  -3.84940313  3.14686682  0.37473755
O  -2.53841218  4.97756829 -0.44480392
N  -3.73469257  1.72085204  0.68991385
C  -4.93591568  3.61415775  1.24595169
C  -3.12542807  0.86483098 -0.25268242
C  -5.35384803  4.97554196  0.75117995
C  -2.53668333 -0.49173483  0.30041003
O  -3.04945180  1.05538929 -1.42556143
O  -4.70746541  5.91792943  1.08275500
N  -6.30735181  5.07657898 -0.27459444
N  -1.67299459 -1.10150830 -0.70850037
C  -1.95158620 -0.41952379  1.73222370
C  -2.06341122 -2.25382623 -1.16368744
C  -1.45207081 -1.64105724  2.41248256
C  -1.17011568 -2.90741151 -2.13510234
O  -3.10215873 -2.80592648 -0.72538699
C  -1.05525687 -1.39269214  3.97271889
C  -2.50308135 -2.76059376  2.45695326
N   0.25408928 -2.99122125 -1.67103898
C  -1.60099260 -4.39504194 -2.19017362
C   1.22809639 -3.11442158 -2.66610852
C  -1.35530906 -5.11331830 -0.75963466
C   2.62594915 -3.34425934 -2.04000598
O   0.89495159 -3.18302081 -3.79272136
C  -1.48846454 -6.57025133 -1.11826145
N   3.14429915 -2.22766325 -1.19292100
C   2.57001706 -4.57934066 -1.21677176
O  -0.56787736 -7.28536882 -1.45303345
N  -2.76619214 -6.87997382 -1.36087946
C   3.72570482 -1.21189158 -1.81123705
O   2.20807074 -4.25460591  0.14166171
C   3.98939901 -5.28031541 -1.22773287
C   3.93965486  0.07347166 -1.01231219
O   4.19286488 -1.24421567 -2.92385636
N   3.07931107  1.09736475 -1.58070211
C   3.62409690  0.18021990  0.51215021
C   1.80030975  0.92739146 -2.06178585
C   2.14738468  0.28233710  0.97463920
O   1.27318842 -0.15031720 -2.17219676
C   2.08908159  0.26648743  2.44671786
O   1.84376095  1.25506794  3.11497512
N   2.32354749 -0.93163315  3.12785321
C   0.55524663  4.03400298  2.06148197
C   2.00296215  4.35016520  1.82932690
C   2.31944763  5.78617250  1.58358024
O   1.75024526  6.61547148  2.21724781
N   3.19956245  6.26894253  0.54312269
C   1.95293137  2.97037753 -3.63149921
O   2.66865286  1.97680694 -4.39268032
H  -1.72631881  3.03762895  1.73383752
H  -0.12975070  4.88250435  0.28448589
H   1.12022377  4.16538089 -1.53001780
H   0.12282355  2.02113001 -2.82274960
H  -4.28146187  3.12487671 -0.55603936
H  -3.51817206  1.61936782  1.68097026
H  -4.78960468  3.65719533  2.32650712
H  -5.89575023  2.90427920  1.31568966
H  -3.37848337 -1.12323798  0.31598623
H  -7.02063386  4.38671133 -0.37040140
H  -6.61118821  6.11329261 -0.42535030
H  -0.79220008 -0.64575099 -0.94183327
H  -1.23698320  0.39221232  1.76099679
H  -2.83823745 -0.18954595  2.38527795
H  -0.50387778 -2.13934809  1.98063478
H  -1.05023724 -2.54386277 -3.08578792
H  -0.37181928 -0.56964113  4.11905180
H  -1.99595204 -1.11228385  4.52738121
H  -0.49340142 -2.25515125  4.43113777
H  -3.48229097 -2.56502172  2.84793583
H  -2.29313598 -3.70047117  2.93680629
H  -2.69743642 -3.18196777  1.41927269
H   0.53191751 -3.11879436 -0.67712793
H  -2.63088957 -4.53510686 -2.42924295
H  -0.83297452 -4.77592989 -2.87107135
H  -2.22405470 -4.95757410 -0.08603172
H  -0.45309018 -4.85826727 -0.22775224
H   3.33237592 -3.47834225 -2.79653906
H   3.00644247 -2.24895064 -0.22785876
H   1.82906298 -5.34064451 -1.60569320
H  -3.02629094 -7.83973186 -1.57491677
H  -3.48088965 -6.38174548 -0.85878525
H   1.84811879 -5.05074413  0.46863587
H   4.60408719 -4.48584432 -0.63691495
H   4.41588918 -5.52152804 -2.27809525
H   4.01927703 -6.23435089 -0.68625494
H   4.99596882  0.43263415 -1.04773370
H   3.36877543  2.11944581 -1.42804251
H   4.10377300  1.05328381  0.82835502
H   4.05018619 -0.71395889  0.99906846
H   1.57755541 -0.57568946  0.69740989
H   1.67650212  1.13919028  0.63703714
H   2.19144333 -0.88641712  4.17215284
H   2.68982947 -1.74403011  2.61179364
H   0.13221929  4.96840567  2.50862080
H   0.48412212  3.01584547  2.57389486
H   2.50563353  4.20731003  2.77614288
H   2.47966795  3.62862158  1.14394649
H   3.64984237  5.61655095  0.00347201
H   3.43376121  7.23065136  0.62705704
H   1.20682421  3.40640460 -4.34880256
H   2.63214614  3.82137098 -3.23306714
H   2.82494804  2.28269333 -5.29732767
