109
pH=7.30 total_charge=0 partial_charge_sum=+0.000000 method=gasteiger energy=-545.70620900
N  -1.67857526  3.59350245  0.91795165
C  -0.33028449  3.90590228  0.53908033
C   0.12430204  2.84546828 -0.36545136
O  -0.20647856  1.74916730 -0.22452064
N   0.92199325  3.28790108 -1.38300160
C   1.11488016  2.36290453 -2.52066284
C  -2.66909574  3.90790932  0.05780733
C  -3.99475329  3.00654172  0.20827441
O  -2.72696673  4.83013755 -0.69029544
N  -3.66223799  1.74142131  0.70323338
C  -5.14558274  3.59703456  1.03735347
C  -3.10774675  0.80916157 -0.20451694
C  -5.39667234  4.95071210  0.61067974
C  -2.53446006 -0.45342107  0.45005003
O  -3.04381023  1.07990662 -1.32677832
O  -4.78139808  5.95513540  0.94459278
N  -6.59397709  5.03468325 -0.20636674
N  -1.64048382 -1.18121682 -0.33531019
C  -2.05246254 -0.22029243  1.81001398
C  -2.06989515 -2.29906847 -0.92803170
C  -1.44137396 -1.45491625  2.45014154
C  -1.02076941 -2.90576400 -1.88034135
O  -3.17823562 -2.75818004 -0.66499261
C  -0.85308579 -1.10213146  3.79633545
C  -2.30026043 -2.63068540  2.52904025
N   0.41978594 -2.56773806 -1.49791880
C  -1.27582409 -4.36928819 -2.08508905
C   1.34468997 -3.02004197 -2.42299154
C  -1.36186878 -5.24568848 -0.80847574
C   2.84371410 -3.24089985 -1.80748835
O   1.06296407 -3.33483800 -3.48668725
C  -1.57831139 -6.77700076 -1.24680058
N   3.22738025 -2.12468593 -0.96391809
C   2.81400786 -4.62305137 -1.11631296
O  -0.66297037 -7.57404912 -1.44353356
N  -2.89220931 -7.10809699 -1.40598917
C   3.59998483 -1.05821093 -1.79008923
O   2.03320358 -4.55303141  0.13558644
C   4.09469164 -5.29732661 -0.90776116
C   3.98044319  0.20100110 -0.99722976
O   3.80730342 -1.13171889 -2.95092909
N   3.22203499  1.35597334 -1.47763864
C   3.91029835  0.28206302  0.47458810
C   2.00470929  1.13441003 -2.05761756
C   2.47386394  0.20718352  1.04428605
O   1.55894870  0.03760597 -2.21680763
C   2.34226097  0.21201560  2.56964083
O   2.11650644  1.15941738  3.26827288
N   2.56545343 -1.04775345  3.10346272
C   0.54087561  3.83703901  1.78547529
C   1.95853008  4.27256035  1.71302384
C   2.08504860  5.76694113  1.50309868
O   1.54143980  6.58004364  2.13875009
N   2.94833873  6.03535962  0.45075544
C   1.76732290  3.08237587 -3.70408596
O   2.28299077  2.01594111 -4.49836175
H  -1.76832841  2.76746357  1.45698786
H  -0.34782655  4.95006540  0.26815552
H   1.00210164  4.33206003 -1.44850079
H   0.06648535  1.97970335 -2.67862770
H  -4.32558536  2.80222626 -0.79187371
H  -3.45712753  1.56529912  1.67906349
H  -4.89276899  3.74819221  2.12995558
H  -6.07196143  2.91870126  0.89093022
H  -3.44101679 -1.02627571  0.44780002
H  -6.81757767  4.12476052 -0.64463106
H  -6.80698022  5.94693178 -0.63476185
H  -0.69906280 -0.87015824 -0.65088110
H  -1.32912849  0.58263564  1.84859956
H  -2.88339634  0.14250800  2.51852100
H  -0.50031183 -1.66405412  1.84762962
H  -1.05390897 -2.48243065 -2.88025055
H  -0.03854176 -0.39288517  3.65721558
H  -1.55322323 -0.58303926  4.53009151
H  -0.45884217 -1.98425000  4.44291294
H  -3.22117972 -2.30270710  3.12922680
H  -1.73144053 -3.49640952  2.98241649
H  -2.71624124 -2.76787347  1.54523788
H   0.74534617 -3.01954346 -0.61132388
H  -2.25520819 -4.48239691 -2.49610980
H  -0.63168417 -4.75429845 -2.89929019
H  -2.16616307 -4.87174849 -0.14709380
H  -0.40590818 -5.20054623 -0.16902027
H   3.50994369 -3.28221319 -2.69549211
H   2.57730361 -1.80000851 -0.28533948
H   2.28312346 -5.24492711 -1.93244340
H  -3.08280998 -8.04433067 -1.79433156
H  -3.62597316 -6.36390136 -1.44031208
H   2.02059930 -5.46016966  0.45465382
H   4.72310109 -4.83942522 -0.10030608
H   4.52580088 -5.28303971 -1.90671417
H   3.90028762 -6.36125534 -0.55941737
H   4.99957776  0.36168775 -1.29501457
H   3.71601404  2.21879787 -1.76160417
H   4.34117832  1.19577069  0.78716194
H   4.51979433 -0.54513870  0.97281072
H   1.85501982 -0.60931783  0.58457896
H   1.95868662  1.10194562  0.63451458
H   2.16397433 -1.16644251  4.07972121
H   2.39608863 -1.83611692  2.44044345
H  -0.15036875  4.25907900  2.61451442
H   0.51858251  2.74985964  2.07275768
H   2.49356354  4.00961848  2.65226071
H   2.41965098  3.69048335  0.92784270
H   3.51237628  5.29489330  0.15856010
H   3.29435816  6.93401453  0.10545512
H   1.00488934  3.68925997 -4.27265724
H   2.48802537  3.81229152 -3.26003432
H   2.75727624  2.36660326 -5.20983772
