109
pH=7.30 total_charge=0 partial_charge_sum=+0.000000 method=gasteiger energy=-547.23745900
N  -1.84917665  3.72596967  0.95291110 -0.34249260
C  -0.43947248  3.99139860  0.63837960  0.10823138
C   0.03200272  2.99766046 -0.39066445  0.24280955
O  -0.31568473  1.79268030 -0.28248342 -0.27270317
N   0.88064443  3.40297520 -1.47418187 -0.34048422
C   1.17881546  2.50178654 -2.59239096  0.13097049
C  -2.87276064  3.78413282 -0.05269423  0.24326556
C  -4.18482543  3.06467728  0.14614840  0.11647571
O  -2.67700859  4.43224171 -1.11661208 -0.27268723
N  -3.94164016  1.71173517  0.66414325 -0.34200327
C  -5.09851555  3.85059935  1.10470007  0.05564542
C  -3.17616594  0.73889407 -0.06752857  0.24275039
C  -5.48806619  5.18306928  0.53270390  0.21952925
C  -2.67610899 -0.52192618  0.60697416  0.10797903
O  -2.95312671  0.92033603 -1.29656647 -0.27270425
O  -4.88584181  6.22546278  0.90445136 -0.27526757
N  -6.51255989  5.27221965 -0.45708145 -0.36959816
N  -1.70581937 -1.20594021 -0.26103625 -0.34251070
C  -2.03470769 -0.21281310  1.98100715 -0.02135014
C  -2.03736210 -2.37864619 -1.02216830  0.24274245
C  -1.34578082 -1.42445453  2.65525497 -0.04466451
C  -1.01829379 -3.02439412 -1.94473780  0.10823167
O  -3.21941255 -2.82050393 -0.99835476 -0.27270440
C  -0.80395101 -1.01004818  4.02969983 -0.06268219
C  -2.29287789 -2.62349911  2.81669763 -0.06268219
N   0.34927594 -2.92758654 -1.41208342 -0.34241708
C  -1.36240574 -4.50107757 -2.25574438 -0.01488791
C   1.49691178 -3.17792930 -2.24341788  0.24541923
C  -1.26821712 -5.41194630 -1.02137930  0.02871204
C   2.86433889 -3.42044135 -1.64930694  0.13355764
O   1.36884732 -3.19833177 -3.49807100 -0.27258857
C  -1.63793661 -6.81867042 -1.38031730  0.21700785
N   3.32693673 -2.22303593 -0.93785588 -0.34025912
C   2.87367877 -4.67646164 -0.74149624  0.08044382
O  -0.73830889 -7.64208599 -1.69672284 -0.27537243
N  -3.00741312 -7.21989789 -1.40884756 -0.36967862
C   3.75551319 -1.04305701 -1.64498957  0.24281759
O   2.15426849 -4.43985144  0.44176911 -0.39071690
C   4.30755796 -5.09422136 -0.39357335 -0.03637741
C   4.01379263  0.28549356 -0.95289932  0.10823287
O   3.93383142 -1.10161802 -2.89259962 -0.27270301
N   3.24120985  1.38884683 -1.54820953 -0.34242702
C   3.87307403  0.28930807  0.58460545 -0.01488790
C   1.91317581  1.27925875 -2.09741270  0.24512676
C   2.42112596  0.22568624  1.08121271  0.02871204
O   1.32437339  0.16533504 -2.13714465 -0.27260157
C   2.39288043 -0.00969807  2.55932458  0.21700785
O   2.39747903  0.97102551  3.35028093 -0.27537243
N   2.41705233 -1.33901017  3.07872376 -0.36967862
C   0.41465051  3.89075484  1.92160181 -0.01488791
C   1.89486363  4.26130646  1.71946937  0.02871204
C   2.07828557  5.70110999  1.33119949  0.21700785
O   1.59451039  6.61302671  2.05398411 -0.27537243
N   2.82908265  6.04830804  0.16742015 -0.36967862
C   1.97186365  3.23128779 -3.68656999  0.07244091
O   2.21630691  2.36515205 -4.76080678 -0.39367907
H  -2.10412659  3.34955212  1.89471832  0.16388107
H  -0.36078365  5.02263758  0.23061649  0.06322945
H   1.20910227  4.39427909 -1.50636370  0.16396758
H   0.21252533  2.18126035 -3.04395854  0.06571339
H  -4.70415063  2.97145873 -0.83430522  0.06376306
H  -4.33280178  1.44461873  1.59521455  0.16389733
H  -4.59201421  3.99448306  2.08464086  0.03937510
H  -6.02424838  3.26452063  1.29249850  0.03937510
H  -3.56371668 -1.16625906  0.78183834  0.06322468
H  -7.00959290  4.41520992 -0.78687026  0.15910138
H  -6.77281588  6.19762809 -0.86452530  0.15910138
H  -0.77043004 -0.76304831 -0.40024856  0.16388080
H  -1.28048740  0.59442278  1.85435231  0.02956173
H  -2.81593133  0.17004804  2.67186067  0.02956173
H  -0.48018169 -1.74171531  2.03262913  0.02979353
H  -1.06647798 -2.45478033 -2.89841386  0.06322945
H  -0.14002323 -0.12596818  3.93436227  0.02330924
H  -1.63727247 -0.75059616  4.71774741  0.02330924
H  -0.21627950 -1.83980087  4.47708228  0.02330924
H  -3.22211692 -2.32068252  3.34523512  0.02330924
H  -1.79697298 -3.43012603  3.39786163  0.02330924
H  -2.55875616 -3.04949473  1.82782924  0.02330924
H   0.49200653 -2.77561906 -0.38867066  0.16388258
H  -2.38563698 -4.55984374 -2.68845420  0.02981628
H  -0.66597596 -4.87965562 -3.03520810  0.02981628
H  -1.94747266 -5.05260126 -0.21962754  0.03675720
H  -0.23363497 -5.40065022 -0.61911825  0.03675720
H   3.56873879 -3.62514796 -2.48772893  0.06601889
H   3.37765072 -2.25347419  0.10193331  0.16397797
H   2.40186263 -5.51554140 -1.30623889  0.06249657
H  -3.26518616 -8.19680597 -1.67219715  0.15909984
H  -3.76545048 -6.54167735 -1.17272934  0.15909984
H   1.94010427 -5.32731298  0.83214061  0.21055973
H   4.82102797 -4.29543145  0.18237006  0.02576598
H   4.88509787 -5.30335921 -1.31907643  0.02576598
H   4.29182175 -6.01884676  0.22144951  0.02576598
H   5.08720257  0.50259975 -1.14931771  0.06322946
H   3.63924227  2.34789461 -1.43239930  0.16388238
H   4.32498859  1.22991161  0.97147248  0.02981628
H   4.47657963 -0.53949581  1.01484370  0.02981628
H   1.84785656 -0.57486165  0.57055498  0.03675720
H   1.91744567  1.18695837  0.86161376  0.03675720
H   2.42877145 -1.50119972  4.10996276  0.15909984
H   2.41262104 -2.16272596  2.43745456  0.15909984
H  -0.01969781  4.55412572  2.70162472  0.02981628
H   0.36210118  2.85147885  2.31560523  0.02981628
H   2.43758360  4.08718737  2.67298866  0.03675720
H   2.35465457  3.59489198  0.95985371  0.03675720
H   3.27668442  5.31189528 -0.42214958  0.15909984
H   2.95012717  7.05013051 -0.10046818  0.15909984
H   1.37635261  4.10112693 -4.04437093  0.05911453
H   2.93470902  3.61341330 -3.28055770  0.05911453
H   2.73246754  2.89039594 -5.42607091  0.21016514
