      -----------------------------------------------------------      
     |                   =====================                   |     
     |                           x T B                           |     
     |                   =====================                   |     
     |                         S. Grimme                         |     
     |          Mulliken Center for Theoretical Chemistry        |     
     |                    University of Bonn                     |     
      -----------------------------------------------------------      

   * xtb version 6.7.1 (edcfbbe) compiled by 'albert@albert-system' on 2024-07-22

   xtb is free software: you can redistribute it and/or modify it under
   the terms of the GNU Lesser General Public License as published by
   the Free Software Foundation, either version 3 of the License, or
   (at your option) any later version.
   
   xtb is distributed in the hope that it will be useful,
   but WITHOUT ANY WARRANTY; without even the implied warranty of
   MERCHANTABILITY or FITNESS FOR A PARTICULAR PURPOSE.  See the
   GNU Lesser General Public License for more details.
   
   Cite this work as:
   * C. Bannwarth, E. Caldeweyher, S. Ehlert, A. Hansen, P. Pracht,
     J. Seibert, S. Spicher, S. Grimme, WIREs Comput. Mol. Sci., 2020, 11,
     e01493. DOI: 10.1002/wcms.1493
   
   for GFN2-xTB:
   * C. Bannwarth, S. Ehlert and S. Grimme., J. Chem. Theory Comput., 2019,
     15, 1652-1671. DOI: 10.1021/acs.jctc.8b01176
   for GFN1-xTB:
   * S. Grimme, C. Bannwarth, P. Shushkov, J. Chem. Theory Comput., 2017,
     13, 1989-2009. DOI: 10.1021/acs.jctc.7b00118
   for GFN0-xTB:
   * P. Pracht, E. Caldeweyher, S. Ehlert, S. Grimme, ChemRxiv, 2019, preprint.
     DOI: 10.26434/chemrxiv.8326202.v1
   for GFN-FF:
   * S. Spicher and S. Grimme, Angew. Chem. Int. Ed., 2020, 59, 15665-15673.
     DOI: 10.1002/anie.202004239
   
   for ALPB and GBSA implicit solvation:
   * S. Ehlert, M. Stahn, S. Spicher, S. Grimme, J. Chem. Theory Comput.,
     2021, 17, 4250-4261. DOI: 10.1021/acs.jctc.1c00471
   
   for ddCOSMO and CPCM-X implicit solvation:
   * M. Stahn, S. Ehlert, S. Grimme, J. Phys. Chem. A,
     2023, XX, XXXX-XXXX. DOI: 10.1021/acs.jpca.3c04382
   
   for DFT-D4:
   * E. Caldeweyher, C. Bannwarth and S. Grimme, J. Chem. Phys., 2017,
     147, 034112. DOI: 10.1063/1.4993215
   * E. Caldeweyher, S. Ehlert, A. Hansen, H. Neugebauer, S. Spicher,
     C. Bannwarth and S. Grimme, J. Chem. Phys., 2019, 150, 154122.
     DOI: 10.1063/1.5090222
   * E. Caldeweyher, J.-M. Mewes, S. Ehlert and S. Grimme, Phys. Chem. Chem. Phys.
     2020, 22, 8499-8512. DOI: 10.1039/D0CP00502A
   
   for sTDA-xTB:
   * S. Grimme and C. Bannwarth, J. Chem. Phys., 2016, 145, 054103.
     DOI: 10.1063/1.4959605
   
   in the mass-spec context:
   * V. Asgeirsson, C. Bauer and S. Grimme, Chem. Sci., 2017, 8, 4879.
     DOI: 10.1039/c7sc00601b
   * J. Koopman and S. Grimme, ACS Omega 2019, 4, 12, 15120-15133.
     DOI: 10.1021/acsomega.9b02011
   
   for metadynamics refer to:
   * S. Grimme, J. Chem. Theory Comput., 2019, 155, 2847-2862
     DOI: 10.1021/acs.jctc.9b00143
   
   for SPH calculations refer to:
   * S. Spicher and S. Grimme, J. Chem. Theory Comput., 2021, 17, 1701-1714
     DOI: 10.1021/acs.jctc.0c01306
   
   for ONIOM refer to:
   * C. Plett, A. Katbashev, S. Ehlert, S. Grimme, M. Bursch,
     Phys. Chem. Chem. Phys., 2023, 25, 17860-17868. DOI: 10.1039/D3CP02178E
   
   for DIPRO refer to:
   * J. Kohn, N. Gildemeister, S. Grimme, D. Fazzi, A. Hansen,
     J. Chem. Phys., 2023, just accepted.
   
   for PTB refer to:
   * S. Grimme, M. Mueller, A. Hansen, J. Chem. Phys., 2023, 158, 124111.
     DOI: 10.1063/5.0137838
   
   with help from (in alphabetical order)
   P. Atkinson, C. Bannwarth, F. Bohle, G. Brandenburg, E. Caldeweyher
   M. Checinski, S. Dohm, S. Ehlert, S. Ehrlich, I. Gerasimov, C. Hölzer
   A. Katbashev, J. Kohn, J. Koopman, C. Lavigne, S. Lehtola, F. März, M. Müller,
   F. Musil, H. Neugebauer, J. Pisarek, C. Plett, P. Pracht, F. Pultar,
   J. Seibert, P. Shushkov, S. Spicher, M. Stahn, M. Steiner, T. Strunk,
   J. Stückrath, T. Rose, and J. Unsleber
   
 * started run on 2026/05/23 at 12:27:08.919     
   ID    Z sym.   atoms
    1    7 N      1, 5, 10, 17, 27, 34, 39, 43, 54, 56, 57
    2    6 C      2, 3, 6-8, 11-14, 16, 18, 21-23, 28-31, 33, 35-38, 40,
                  44-48, 50-53, 55, 58
    3    8 O      4, 9, 15, 19, 20, 24-26, 32, 41, 49
    4   16 S      42
    5    1 H      59-117

           -------------------------------------------------
          |                Calculation Setup                |
           -------------------------------------------------

          program call               : /home/xchen/software/xtb-6.7.1/xtb-dist/bin/xtb /home/xchen/Test/benchmark/md_sampled/04_7_0231_n2/snap_0016.xyz --charge -2 --gfn 2 --norestart
          coordinate file            : /home/xchen/Test/benchmark/md_sampled/04_7_0231_n2/snap_0016.xyz
          omp threads                :                    48


           -------------------------------------------------
          |                 G F N 2 - x T B                 |
           -------------------------------------------------

        Reference                      10.1021/acs.jctc.8b01176
      * Hamiltonian:
        H0-scaling (s, p, d)           1.850000    2.230000    2.230000
        zeta-weighting                 0.500000
      * Dispersion:
        s8                             2.700000
        a1                             0.520000
        a2                             5.000000
        s9                             5.000000
      * Repulsion:
        kExp                           1.500000    1.000000
        rExp                           1.000000
      * Coulomb:
        alpha                          2.000000
        third order                    shell-resolved
        anisotropic                    true
        a3                             3.000000
        a5                             4.000000
        cn-shift                       1.200000
        cn-exp                         4.000000
        max-rad                        5.000000


          ...................................................
          :                      SETUP                      :
          :.................................................:
          :  # basis functions                 297          :
          :  # atomic orbitals                 296          :
          :  # shells                          176          :
          :  # electrons                       328          :
          :  max. iterations                   250          :
          :  Hamiltonian                  GFN2-xTB          :
          :  restarted?                      false          :
          :  GBSA solvation                  false          :
          :  PC potential                    false          :
          :  electronic temp.          300.0000000     K    :
          :  accuracy                    1.0000000          :
          :  -> integral cutoff          0.2500000E+02      :
          :  -> integral neglect         0.1000000E-07      :
          :  -> SCF convergence          0.1000000E-05 Eh   :
          :  -> wf. convergence          0.1000000E-03 e    :
          :  Broyden damping             0.4000000          :
          :  net charge                         -2          :
          :  unpaired electrons                  0          :
          ...................................................

 iter      E             dE          RMSdq      gap      omega  full diag
   1   -187.0213507 -0.187021E+03  0.433E+00    3.73       0.0  T
   2   -187.6030729 -0.581722E+00  0.224E+00    2.69       1.0  T
   3   -187.6342998 -0.312269E-01  0.124E+00    1.33       1.0  T
   4   -186.4224419  0.121186E+01  0.216E+00    0.16       1.0  T
   5   -187.6419298 -0.121949E+01  0.273E-01    0.89       1.0  T
   6   -187.6451918 -0.326201E-02  0.142E-01    0.88       1.0  T
   7   -187.6452013 -0.945035E-05  0.943E-02    0.98       1.0  T
   8   -187.6453695 -0.168186E-03  0.783E-02    0.98       1.0  T
   9   -187.6454262 -0.567501E-04  0.726E-02    0.94       1.0  T
  10   -187.6454723 -0.461222E-04  0.683E-02    0.89       1.0  T
  11   -187.6455191 -0.467783E-04  0.643E-02    0.85       1.0  T
  12   -187.6455732 -0.541251E-04  0.591E-02    0.80       1.0  T
  13   -187.6456212 -0.480088E-04  0.542E-02    0.74       1.0  T
  14   -187.6457460 -0.124740E-03  0.386E-02    0.57       1.0  T
  15   -187.6458750 -0.128974E-03  0.154E-02    0.35       1.0  T
  16   -187.6457266  0.148340E-03  0.281E-02    0.21       1.0  T
  17   -187.6459062 -0.179581E-03  0.752E-03    0.30       1.2  T
  18   -187.6459099 -0.372395E-05  0.613E-03    0.29       1.5  T
  19   -187.6459176 -0.768331E-05  0.493E-04    0.27      18.7  T
  20   -187.6459173  0.286985E-06  0.125E-03    0.28       7.4  T
  21   -187.6459175 -0.229727E-06  0.708E-04    0.27      13.1  T
  22   -187.6459176 -0.101153E-06  0.184E-04    0.27      50.2  T

   *** convergence criteria satisfied after 22 iterations ***

         #    Occupation            Energy/Eh            Energy/eV
      -------------------------------------------------------------
         1        2.0000           -0.6068203             -16.5124
       ...           ...                  ...                  ...
       158        2.0000           -0.2299995              -6.2586
       159        2.0000           -0.1803352              -4.9072
       160        2.0000           -0.1661021              -4.5199
       161        2.0000           -0.1579858              -4.2990
       162        2.0000           -0.1567650              -4.2658
       163        2.0000           -0.1394582              -3.7949
       164        1.9898           -0.1337120              -3.6385 (HOMO)
       165        0.0102           -0.1236930              -3.3659 (LUMO)
       166        0.0000           -0.1132588              -3.0819
       167                         -0.1103632              -3.0031
       168                         -0.0832690              -2.2659
       169                         -0.0799811              -2.1764
       ...                                ...                  ...
       296                          0.7870926              21.4179
      -------------------------------------------------------------
                  HL-Gap            0.0100190 Eh            0.2726 eV
             Fermi-level           -0.1287014 Eh           -3.5021 eV

 SCC (total)                   0 d,  0 h,  0 min, 35.049 sec
 SCC setup                      ...        0 min,  0.034 sec (  0.097%)
 Dispersion                     ...        0 min,  0.165 sec (  0.471%)
 classical contributions        ...        0 min,  0.006 sec (  0.017%)
 integral evaluation            ...        0 min,  0.661 sec (  1.887%)
 iterations                     ...        0 min, 33.189 sec ( 94.693%)
 molecular gradient             ...        0 min,  0.980 sec (  2.796%)
 printout                       ...        0 min,  0.013 sec (  0.038%)

         :::::::::::::::::::::::::::::::::::::::::::::::::::::
         ::                     SUMMARY                     ::
         :::::::::::::::::::::::::::::::::::::::::::::::::::::
         :: total energy            -185.542426662948 Eh    ::
         :: gradient norm              0.369840592007 Eh/a0 ::
         :: HOMO-LUMO gap              0.272630788465 eV    ::
         ::.................................................::
         :: SCC energy              -187.639787597516 Eh    ::
         :: -> isotropic ES            0.761645093130 Eh    ::
         :: -> anisotropic ES          0.011435818303 Eh    ::
         :: -> anisotropic XC          0.059993441777 Eh    ::
         :: -> dispersion             -0.140712497122 Eh    ::
         :: repulsion energy           2.097360934568 Eh    ::
         :: add. restraining           0.000000000000 Eh    ::
         :: total charge              -1.999999999988 e     ::
         :::::::::::::::::::::::::::::::::::::::::::::::::::::

           -------------------------------------------------
          |                Property Printout                |
           -------------------------------------------------

    * Orbital Energies and Occupations

         #    Occupation            Energy/Eh            Energy/eV
      -------------------------------------------------------------
         1        2.0000           -0.6068203             -16.5124
       ...           ...                  ...                  ...
       152        2.0000           -0.2409629              -6.5569
       153        2.0000           -0.2390739              -6.5055
       154        2.0000           -0.2378032              -6.4710
       155        2.0000           -0.2357699              -6.4156
       156        2.0000           -0.2350197              -6.3952
       157        2.0000           -0.2349742              -6.3940
       158        2.0000           -0.2299995              -6.2586
       159        2.0000           -0.1803352              -4.9072
       160        2.0000           -0.1661021              -4.5199
       161        2.0000           -0.1579858              -4.2990
       162        2.0000           -0.1567650              -4.2658
       163        2.0000           -0.1394582              -3.7949
       164        1.9898           -0.1337120              -3.6385 (HOMO)
       165        0.0102           -0.1236930              -3.3659 (LUMO)
       166        0.0000           -0.1132588              -3.0819
       167                         -0.1103632              -3.0031
       168                         -0.0832690              -2.2659
       169                         -0.0799811              -2.1764
       170                         -0.0772845              -2.1030
       171                         -0.0747208              -2.0333
       172                         -0.0589424              -1.6039
       173                         -0.0587491              -1.5986
       174                         -0.0281949              -0.7672
       175                          0.0235417               0.6406
       ...                                ...                  ...
       296                          0.7870926              21.4179
      -------------------------------------------------------------
                  HL-Gap            0.0100190 Eh            0.2726 eV
             Fermi-level           -0.1287014 Eh           -3.5021 eV

     #   Z          covCN         q      C6AA      α(0)
     1   7 N        2.694    -0.165    24.569     7.362
     2   6 C        3.815     0.043    19.839     6.339
     3   6 C        2.765     0.284    22.197     7.716
     4   8 O        0.858    -0.430    22.294     6.330
     5   7 N        2.696    -0.180    24.891     7.410
     6   6 C        3.793     0.031    20.066     6.379
     7   6 C        2.791     0.279    22.274     7.731
     8   6 C        3.803     0.020    20.231     6.404
     9   8 O        0.865    -0.451    22.722     6.391
    10   7 N        2.708    -0.175    24.797     7.396
    11   6 C        3.812    -0.051    21.478     6.597
    12   6 C        2.757     0.269    22.450     7.759
    13   6 C        3.785    -0.082    22.081     6.693
    14   6 C        3.802     0.037    19.945     6.358
    15   8 O        0.857    -0.469    23.106     6.445
    16   6 C        2.692     0.349    21.065     7.512
    17   7 N        2.686    -0.152    24.294     7.320
    18   6 C        3.806    -0.092    22.249     6.715
    19   8 O        0.857    -0.596    26.018     6.839
    20   8 O        0.856    -0.610    26.377     6.886
    21   6 C        2.756     0.249    22.827     7.824
    22   6 C        2.683     0.351    21.034     7.505
    23   6 C        3.773     0.019    20.290     6.418
    24   8 O        0.859    -0.495    23.667     6.523
    25   8 O        0.856    -0.579    25.612     6.785
    26   8 O        0.856    -0.603    26.203     6.863
    27   7 N        2.698    -0.155    24.356     7.330
    28   6 C        3.802    -0.076    21.944     6.669
    29   6 C        2.770     0.267    22.500     7.769
    30   6 C        3.803    -0.053    21.516     6.604
    31   6 C        3.795     0.034    20.010     6.370
    32   8 O        0.858    -0.449    22.694     6.387
    33   6 C        3.807    -0.070    21.841     6.653
    34   7 N        2.700    -0.173    24.753     7.389
    35   6 C        3.816    -0.070    21.820     6.648
    36   6 C        3.733     0.032    20.117     6.402
    37   6 C        2.751     0.270    22.439     7.757
    38   6 C        3.768    -0.015    20.871     6.511
    39   7 N        2.633    -0.367    29.477     8.063
    40   6 C        3.811     0.023    20.174     6.393
    41   8 O        0.857    -0.445    22.591     6.372
    42  16 S        1.937    -0.226   150.721    20.663
    43   7 N        2.711    -0.208    25.520     7.503
    44   6 C        3.873    -0.024    20.955     6.509
    45   6 C        3.749    -0.043    21.407     6.599
    46   6 C        2.779     0.267    22.494     7.768
    47   6 C        3.756    -0.109    22.642     6.785
    48   6 C        3.798    -0.071    21.867     6.658
    49   8 O        0.861    -0.431    22.306     6.332
    50   6 C        3.748    -0.111    22.694     6.795
    51   6 C        3.833    -0.070    21.819     6.646
    52   6 C        3.806    -0.080    22.027     6.681
    53   6 C        3.753     0.010    20.462     6.450
    54   7 N        2.704    -0.218    25.749     7.536
    55   6 C        2.754     0.223    23.309     7.906
    56   7 N        1.783    -0.488    33.957     8.630
    57   7 N        2.661    -0.326    28.391     7.914
    58   6 C        3.732    -0.117    22.833     6.821
    59   1 H        0.859     0.166     1.298     1.785
    60   1 H        0.924     0.060     2.195     2.317
    61   1 H        0.861     0.196     1.125     1.662
    62   1 H        0.917     0.062     2.178     2.308
    63   1 H        0.926     0.069     2.099     2.266
    64   1 H        0.860     0.188     1.171     1.695
    65   1 H        0.929     0.067     2.115     2.274
    66   1 H        0.922     0.051     2.303     2.373
    67   1 H        0.909     0.018     2.774     2.606
    68   1 H        0.911    -0.012     3.269     2.828
    69   1 H        0.925     0.080     1.983     2.202
    70   1 H        0.858     0.211     1.053     1.608
    71   1 H        0.914     0.013     2.849     2.640
    72   1 H        0.928     0.044     2.398     2.421
    73   1 H        0.923     0.055     2.263     2.353
    74   1 H        0.861     0.206     1.076     1.625
    75   1 H        0.927     0.051     2.308     2.376
    76   1 H        0.928     0.074     2.037     2.232
    77   1 H        0.925     0.048     2.344     2.394
    78   1 H        0.925     0.024     2.672     2.556
    79   1 H        0.918     0.045     2.391     2.418
    80   1 H        0.927     0.067     2.119     2.276
    81   1 H        0.926     0.023     2.682     2.561
    82   1 H        0.861     0.183     1.196     1.713
    83   1 H        0.925     0.056     2.242     2.341
    84   1 H        0.926     0.072     2.060     2.244
    85   1 H        0.926     0.005     2.979     2.699
    86   1 H        0.923     0.010     2.891     2.659
    87   1 H        0.914     0.044     2.400     2.423
    88   1 H        0.919     0.053     2.288     2.366
    89   1 H        0.861     0.166     1.294     1.782
    90   1 H        0.863     0.148     1.414     1.862
    91   1 H        0.924     0.084     1.942     2.179
    92   1 H        0.857     0.179     1.221     1.731
    93   1 H        0.921     0.048     2.349     2.397
    94   1 H        0.927     0.069     2.102     2.267
    95   1 H        0.924     0.046     2.372     2.409
    96   1 H        0.926     0.046     2.368     2.406
    97   1 H        0.928     0.049     2.335     2.390
    98   1 H        0.919     0.039     2.462     2.454
    99   1 H        0.926     0.034     2.527     2.486
   100   1 H        0.926     0.040     2.451     2.448
   101   1 H        0.924     0.035     2.514     2.480
   102   1 H        0.922     0.030     2.592     2.518
   103   1 H        0.928     0.044     2.393     2.419
   104   1 H        0.926     0.048     2.350     2.397
   105   1 H        0.928     0.064     2.154     2.295
   106   1 H        0.927     0.055     2.253     2.347
   107   1 H        0.924     0.054     2.266     2.354
   108   1 H        0.927     0.060     2.200     2.320
   109   1 H        0.923     0.043     2.411     2.428
   110   1 H        0.922     0.049     2.333     2.389
   111   1 H        0.861     0.169     1.276     1.770
   112   1 H        0.859     0.104     1.757     2.076
   113   1 H        0.861     0.173     1.257     1.756
   114   1 H        0.863     0.203     1.093     1.637
   115   1 H        0.922     0.092     1.865     2.136
   116   1 H        0.925     0.037     2.491     2.468
   117   1 H        0.907     0.033     2.551     2.499

 Mol. C6AA /au·bohr⁶  :     136333.058773
 Mol. C8AA /au·bohr⁸  :    3091214.767571
 Mol. α(0) /au        :        551.333523


Wiberg/Mayer (AO) data.
largest (>0.10) Wiberg bond orders for each atom

 ---------------------------------------------------------------------------
     #   Z sym  total        # sym  WBO       # sym  WBO       # sym  WBO
 ---------------------------------------------------------------------------
     1   7 N    3.419 --     7 C    1.209     2 C    1.017    59 H    0.935
                             9 O    0.174
     2   6 C    3.977 --     1 N    1.017    51 C    0.979    60 H    0.942
                             3 C    0.928
     3   6 C    3.946 --     4 O    1.701     5 N    1.222     2 C    0.928
     4   8 O    2.000 --     3 C    1.701     5 N    0.179
     5   7 N    3.408 --     3 C    1.222     6 C    1.004    61 H    0.926
                             4 O    0.179
     6   6 C    3.979 --     5 N    1.004    58 C    0.973    46 C    0.972
                            62 H    0.929
     7   6 C    3.937 --     9 O    1.672     1 N    1.209     8 C    0.959
     8   6 C    3.957 --    10 N    0.962     7 C    0.959    63 H    0.957
                            11 C    0.957
     9   8 O    1.987 --     7 C    1.672     1 N    0.174
    10   7 N    3.452 --    12 C    1.262     8 C    0.962    64 H    0.928
                            15 O    0.190
    11   6 C    3.984 --    13 C    1.021    66 H    0.969    65 H    0.964
                             8 C    0.957
    12   6 C    3.947 --    15 O    1.641    10 N    1.262    14 C    0.948
    13   6 C    3.975 --    11 C    1.021    67 H    0.971    68 H    0.969
                            16 C    0.888
    14   6 C    3.953 --    18 C    0.974    17 N    0.953    69 H    0.951
                            12 C    0.948
    15   8 O    1.953 --    12 C    1.641    10 N    0.190
    16   6 C    3.948 --    19 O    1.530    20 O    1.504    13 C    0.888
    17   7 N    3.514 --    21 C    1.378    14 C    0.953    70 H    0.910
                            24 O    0.200
    18   6 C    3.963 --    14 C    0.974    71 H    0.970    72 H    0.970
                            22 C    0.891
    19   8 O    1.830 --    16 C    1.530    20 O    0.230
    20   8 O    1.804 --    16 C    1.504    19 O    0.230
    21   6 C    3.949 --    24 O    1.587    17 N    1.378    23 C    0.912
    22   6 C    3.950 --    25 O    1.538    26 O    1.498    18 C    0.891
    23   6 C    3.959 --    27 N    1.003    73 H    0.954    28 C    0.952
                            21 C    0.912
    24   8 O    1.936 --    21 C    1.587    17 N    0.200
    25   8 O    1.853 --    22 C    1.538    26 O    0.239
    26   8 O    1.819 --    22 C    1.498    25 O    0.239
    27   7 N    3.494 --    29 C    1.300    23 C    1.003    74 H    0.908
                            32 O    0.202
    28   6 C    3.984 --    30 C    1.005    75 H    0.970    76 H    0.965
                            23 C    0.952
    29   6 C    3.958 --    32 O    1.648    27 N    1.300    31 C    0.931
    30   6 C    3.990 --    33 C    1.018    28 C    1.005    78 H    0.972
                            77 H    0.962
    31   6 C    3.966 --    34 N    0.985    35 C    0.984    79 H    0.944
                            29 C    0.931
    32   8 O    1.984 --    29 C    1.648    27 N    0.202
    33   6 C    3.994 --    30 C    1.018    36 C    0.988    81 H    0.978
                            80 H    0.973
    34   7 N    3.448 --    37 C    1.250    31 C    0.985    82 H    0.925
                            41 O    0.195
    35   6 C    3.986 --    38 C    1.014    31 C    0.984    83 H    0.960
                            84 H    0.958
    36   6 C    3.990 --    39 N    1.025    33 C    0.988    86 H    0.977
                            85 H    0.974
    37   6 C    3.944 --    41 O    1.662    34 N    1.250    40 C    0.950
    38   6 C    3.978 --    35 C    1.014    88 H    0.973    42 S    0.972
                            87 H    0.971
    39   7 N    2.978 --    36 C    1.025    90 H    0.954    89 H    0.948
    40   6 C    3.964 --    43 N    0.984    44 C    0.962    37 C    0.950
                            91 H    0.939
    41   8 O    1.979 --    37 C    1.662    34 N    0.195
    42  16 S    2.104 --    45 C    1.029    38 C    0.972
    43   7 N    3.387 --    46 C    1.209    40 C    0.984    92 H    0.915
                            49 O    0.181
    44   6 C    3.990 --    47 C    1.019    48 C    0.988    93 H    0.965
                            40 C    0.962
    45   6 C    3.970 --    42 S    1.029    96 H    0.982    95 H    0.969
                            94 H    0.965
    46   6 C    3.953 --    49 O    1.697    43 N    1.209     6 C    0.972
    47   6 C    3.989 --    44 C    1.019    98 H    0.981    97 H    0.979
                            99 H    0.971
    48   6 C    3.995 --    50 C    1.015    44 C    0.988   100 H    0.980
                           101 H    0.973
    49   8 O    2.007 --    46 C    1.697    43 N    0.181
    50   6 C    3.989 --    48 C    1.015   102 H    0.990   103 H    0.985
                           104 H    0.983
    51   6 C    3.992 --    52 C    1.005     2 C    0.979   105 H    0.969
                           106 H    0.965
    52   6 C    3.987 --    53 C    1.008    51 C    1.005   108 H    0.970
                           107 H    0.969
    53   6 C    3.968 --    52 C    1.008   109 H    0.968   110 H    0.968
                            54 N    0.962
    54   7 N    3.367 --    55 C    1.225    53 C    0.962   111 H    0.932
                            56 N    0.154
    55   6 C    3.960 --    56 N    1.574    54 N    1.225    57 N    1.140
    56   7 N    2.841 --    55 C    1.574   112 H    0.953    54 N    0.154
    57   7 N    3.213 --    55 C    1.140   113 H    0.945   114 H    0.941
    58   6 C    3.985 --   116 H    0.982   115 H    0.976   117 H    0.974
                             6 C    0.973
    59   1 H    0.972 --     1 N    0.935
    60   1 H    0.996 --     2 C    0.942
    61   1 H    0.961 --     5 N    0.926
    62   1 H    0.996 --     6 C    0.929
    63   1 H    0.995 --     8 C    0.957
    64   1 H    0.965 --    10 N    0.928
    65   1 H    0.995 --    11 C    0.964
    66   1 H    0.997 --    11 C    0.969
    67   1 H    1.000 --    13 C    0.971
    68   1 H    1.000 --    13 C    0.969
    69   1 H    0.993 --    14 C    0.951
    70   1 H    0.956 --    17 N    0.910
    71   1 H    1.000 --    18 C    0.970
    72   1 H    0.997 --    18 C    0.970
    73   1 H    0.997 --    23 C    0.954
    74   1 H    0.957 --    27 N    0.908
    75   1 H    0.997 --    28 C    0.970
    76   1 H    0.994 --    28 C    0.965
    77   1 H    0.998 --    30 C    0.962
    78   1 H    0.999 --    30 C    0.972
    79   1 H    0.998 --    31 C    0.944
    80   1 H    0.996 --    33 C    0.973
    81   1 H    0.999 --    33 C    0.978
    82   1 H    0.966 --    34 N    0.925
    83   1 H    0.996 --    35 C    0.960
    84   1 H    0.995 --    35 C    0.958
    85   1 H    1.000 --    36 C    0.974
    86   1 H    1.000 --    36 C    0.977
    87   1 H    0.998 --    38 C    0.971
    88   1 H    0.997 --    38 C    0.973
    89   1 H    0.972 --    39 N    0.948
    90   1 H    0.978 --    39 N    0.954
    91   1 H    0.992 --    40 C    0.939
    92   1 H    0.968 --    43 N    0.915
    93   1 H    0.997 --    44 C    0.965
    94   1 H    0.995 --    45 C    0.965
    95   1 H    0.998 --    45 C    0.969
    96   1 H    0.998 --    45 C    0.982
    97   1 H    0.997 --    47 C    0.979
    98   1 H    0.998 --    47 C    0.981
    99   1 H    0.999 --    47 C    0.971
   100   1 H    0.998 --    48 C    0.980
   101   1 H    0.999 --    48 C    0.973
   102   1 H    0.999 --    50 C    0.990
   103   1 H    0.998 --    50 C    0.985
   104   1 H    0.998 --    50 C    0.983
   105   1 H    0.996 --    51 C    0.969
   106   1 H    0.997 --    51 C    0.965
   107   1 H    0.997 --    52 C    0.969
   108   1 H    0.996 --    52 C    0.970
   109   1 H    0.998 --    53 C    0.968
   110   1 H    0.997 --    53 C    0.968
   111   1 H    0.971 --    54 N    0.932
   112   1 H    0.989 --    56 N    0.953
   113   1 H    0.970 --    57 N    0.945
   114   1 H    0.959 --    57 N    0.941
   115   1 H    0.992 --    58 C    0.976
   116   1 H    0.998 --    58 C    0.982
   117   1 H    0.999 --    58 C    0.974
 ---------------------------------------------------------------------------

Topologies differ in total number of bonds
Writing topology from bond orders to xtbtopo.mol

molecular dipole:
                 x           y           z       tot (Debye)
 q only:        1.791      15.126      -0.022
   full:        1.865      14.453      -0.567      37.067
molecular quadrupole (traceless):
                xx          xy          yy          xz          yz          zz
 q only:       22.514      -3.892     -68.784      88.301     -82.342      46.270
  q+dip:        6.787       4.195     -59.793      88.372     -85.803      53.006
   full:        7.748       4.295     -58.884      87.875     -86.297      51.136


           -------------------------------------------------
          | TOTAL ENERGY             -185.542426662948 Eh   |
          | GRADIENT NORM               0.369840592007 Eh/α |
          | HOMO-LUMO GAP               0.272630788465 eV   |
           -------------------------------------------------

------------------------------------------------------------------------
 * finished run on 2026/05/23 at 12:27:44.886     
------------------------------------------------------------------------
 total:
 * wall-time:     0 d,  0 h,  0 min, 35.966 sec
 *  cpu-time:     0 d,  0 h,  0 min, 43.513 sec
 * ratio c/w:     1.210 speedup
 SCF:
 * wall-time:     0 d,  0 h,  0 min, 35.050 sec
 *  cpu-time:     0 d,  0 h,  0 min, 42.409 sec
 * ratio c/w:     1.210 speedup

normal termination of xtb
