      -----------------------------------------------------------      
     |                   =====================                   |     
     |                           x T B                           |     
     |                   =====================                   |     
     |                         S. Grimme                         |     
     |          Mulliken Center for Theoretical Chemistry        |     
     |                    University of Bonn                     |     
      -----------------------------------------------------------      

   * xtb version 6.7.1 (edcfbbe) compiled by 'albert@albert-system' on 2024-07-22

   xtb is free software: you can redistribute it and/or modify it under
   the terms of the GNU Lesser General Public License as published by
   the Free Software Foundation, either version 3 of the License, or
   (at your option) any later version.
   
   xtb is distributed in the hope that it will be useful,
   but WITHOUT ANY WARRANTY; without even the implied warranty of
   MERCHANTABILITY or FITNESS FOR A PARTICULAR PURPOSE.  See the
   GNU Lesser General Public License for more details.
   
   Cite this work as:
   * C. Bannwarth, E. Caldeweyher, S. Ehlert, A. Hansen, P. Pracht,
     J. Seibert, S. Spicher, S. Grimme, WIREs Comput. Mol. Sci., 2020, 11,
     e01493. DOI: 10.1002/wcms.1493
   
   for GFN2-xTB:
   * C. Bannwarth, S. Ehlert and S. Grimme., J. Chem. Theory Comput., 2019,
     15, 1652-1671. DOI: 10.1021/acs.jctc.8b01176
   for GFN1-xTB:
   * S. Grimme, C. Bannwarth, P. Shushkov, J. Chem. Theory Comput., 2017,
     13, 1989-2009. DOI: 10.1021/acs.jctc.7b00118
   for GFN0-xTB:
   * P. Pracht, E. Caldeweyher, S. Ehlert, S. Grimme, ChemRxiv, 2019, preprint.
     DOI: 10.26434/chemrxiv.8326202.v1
   for GFN-FF:
   * S. Spicher and S. Grimme, Angew. Chem. Int. Ed., 2020, 59, 15665-15673.
     DOI: 10.1002/anie.202004239
   
   for ALPB and GBSA implicit solvation:
   * S. Ehlert, M. Stahn, S. Spicher, S. Grimme, J. Chem. Theory Comput.,
     2021, 17, 4250-4261. DOI: 10.1021/acs.jctc.1c00471
   
   for ddCOSMO and CPCM-X implicit solvation:
   * M. Stahn, S. Ehlert, S. Grimme, J. Phys. Chem. A,
     2023, XX, XXXX-XXXX. DOI: 10.1021/acs.jpca.3c04382
   
   for DFT-D4:
   * E. Caldeweyher, C. Bannwarth and S. Grimme, J. Chem. Phys., 2017,
     147, 034112. DOI: 10.1063/1.4993215
   * E. Caldeweyher, S. Ehlert, A. Hansen, H. Neugebauer, S. Spicher,
     C. Bannwarth and S. Grimme, J. Chem. Phys., 2019, 150, 154122.
     DOI: 10.1063/1.5090222
   * E. Caldeweyher, J.-M. Mewes, S. Ehlert and S. Grimme, Phys. Chem. Chem. Phys.
     2020, 22, 8499-8512. DOI: 10.1039/D0CP00502A
   
   for sTDA-xTB:
   * S. Grimme and C. Bannwarth, J. Chem. Phys., 2016, 145, 054103.
     DOI: 10.1063/1.4959605
   
   in the mass-spec context:
   * V. Asgeirsson, C. Bauer and S. Grimme, Chem. Sci., 2017, 8, 4879.
     DOI: 10.1039/c7sc00601b
   * J. Koopman and S. Grimme, ACS Omega 2019, 4, 12, 15120-15133.
     DOI: 10.1021/acsomega.9b02011
   
   for metadynamics refer to:
   * S. Grimme, J. Chem. Theory Comput., 2019, 155, 2847-2862
     DOI: 10.1021/acs.jctc.9b00143
   
   for SPH calculations refer to:
   * S. Spicher and S. Grimme, J. Chem. Theory Comput., 2021, 17, 1701-1714
     DOI: 10.1021/acs.jctc.0c01306
   
   for ONIOM refer to:
   * C. Plett, A. Katbashev, S. Ehlert, S. Grimme, M. Bursch,
     Phys. Chem. Chem. Phys., 2023, 25, 17860-17868. DOI: 10.1039/D3CP02178E
   
   for DIPRO refer to:
   * J. Kohn, N. Gildemeister, S. Grimme, D. Fazzi, A. Hansen,
     J. Chem. Phys., 2023, just accepted.
   
   for PTB refer to:
   * S. Grimme, M. Mueller, A. Hansen, J. Chem. Phys., 2023, 158, 124111.
     DOI: 10.1063/5.0137838
   
   with help from (in alphabetical order)
   P. Atkinson, C. Bannwarth, F. Bohle, G. Brandenburg, E. Caldeweyher
   M. Checinski, S. Dohm, S. Ehlert, S. Ehrlich, I. Gerasimov, C. Hölzer
   A. Katbashev, J. Kohn, J. Koopman, C. Lavigne, S. Lehtola, F. März, M. Müller,
   F. Musil, H. Neugebauer, J. Pisarek, C. Plett, P. Pracht, F. Pultar,
   J. Seibert, P. Shushkov, S. Spicher, M. Stahn, M. Steiner, T. Strunk,
   J. Stückrath, T. Rose, and J. Unsleber
   
 * started run on 2026/05/23 at 12:36:48.253     
   ID    Z sym.   atoms
    1    7 N      1, 5, 10, 17, 18, 26, 33, 36, 42, 49, 54
    2    6 C      2, 3, 6-8, 11-14, 19-22, 24, 25, 27-30, 32, 34, 37, 39, 40,
                  43-45, 47, 50-52, 55
    3    8 O      4, 9, 15, 16, 23, 31, 35, 38, 41, 46, 48, 53, 56
    4    1 H      57-109

           -------------------------------------------------
          |                Calculation Setup                |
           -------------------------------------------------

          program call               : /home/xchen/software/xtb-6.7.1/xtb-dist/bin/xtb /home/xchen/Test/benchmark/md_sampled/08_7_0366_0/snap_0064.xyz --charge 0 --gfn 2 --norestart
          coordinate file            : /home/xchen/Test/benchmark/md_sampled/08_7_0366_0/snap_0064.xyz
          omp threads                :                    48


           -------------------------------------------------
          |                 G F N 2 - x T B                 |
           -------------------------------------------------

        Reference                      10.1021/acs.jctc.8b01176
      * Hamiltonian:
        H0-scaling (s, p, d)           1.850000    2.230000    2.230000
        zeta-weighting                 0.500000
      * Dispersion:
        s8                             2.700000
        a1                             0.520000
        a2                             5.000000
        s9                             5.000000
      * Repulsion:
        kExp                           1.500000    1.000000
        rExp                           1.000000
      * Coulomb:
        alpha                          2.000000
        third order                    shell-resolved
        anisotropic                    true
        a3                             3.000000
        a5                             4.000000
        cn-shift                       1.200000
        cn-exp                         4.000000
        max-rad                        5.000000


          ...................................................
          :                      SETUP                      :
          :.................................................:
          :  # basis functions                 277          :
          :  # atomic orbitals                 277          :
          :  # shells                          165          :
          :  # electrons                       314          :
          :  max. iterations                   250          :
          :  Hamiltonian                  GFN2-xTB          :
          :  restarted?                      false          :
          :  GBSA solvation                  false          :
          :  PC potential                    false          :
          :  electronic temp.          300.0000000     K    :
          :  accuracy                    1.0000000          :
          :  -> integral cutoff          0.2500000E+02      :
          :  -> integral neglect         0.1000000E-07      :
          :  -> SCF convergence          0.1000000E-05 Eh   :
          :  -> wf. convergence          0.1000000E-03 e    :
          :  Broyden damping             0.4000000          :
          :  net charge                          0          :
          :  unpaired electrons                  0          :
          ...................................................

 iter      E             dE          RMSdq      gap      omega  full diag
   1   -181.8965608 -0.181897E+03  0.437E+00    4.03       0.0  T
   2   -182.4623539 -0.565793E+00  0.231E+00    3.13       1.0  T
   3   -182.4910619 -0.287080E-01  0.129E+00    3.40       1.0  T
   4   -182.4950132 -0.395126E-02  0.238E-01    2.93       1.0  T
   5   -182.4992789 -0.426577E-02  0.975E-02    3.09       1.0  T
   6   -182.4993581 -0.791199E-04  0.412E-02    3.09       1.0  T
   7   -182.4993727 -0.146031E-04  0.149E-02    3.09       1.0  T
   8   -182.4993768 -0.411214E-05  0.541E-03    3.09       1.8  T
   9   -182.4993774 -0.681571E-06  0.225E-03    3.09       4.3  T
  10   -182.4993775 -0.602686E-07  0.998E-04    3.09       9.6  T
  11   -182.4993775 -0.339283E-07  0.228E-04    3.09      42.1  T

   *** convergence criteria satisfied after 11 iterations ***

         #    Occupation            Energy/Eh            Energy/eV
      -------------------------------------------------------------
         1        2.0000           -0.7220020             -19.6467
       ...           ...                  ...                  ...
       151        2.0000           -0.4065068             -11.0616
       152        2.0000           -0.3997477             -10.8777
       153        2.0000           -0.3995324             -10.8718
       154        2.0000           -0.3953285             -10.7574
       155        2.0000           -0.3941428             -10.7252
       156        2.0000           -0.3859185             -10.5014
       157        2.0000           -0.3732449             -10.1565 (HOMO)
       158                         -0.2597090              -7.0670 (LUMO)
       159                         -0.2499798              -6.8023
       160                         -0.2369758              -6.4484
       161                         -0.2356431              -6.4122
       162                         -0.2318299              -6.3084
       ...                                ...                  ...
       277                          0.6934815              18.8706
      -------------------------------------------------------------
                  HL-Gap            0.1135359 Eh            3.0895 eV
             Fermi-level           -0.3164770 Eh           -8.6118 eV

 SCC (total)                   0 d,  0 h,  0 min, 19.447 sec
 SCC setup                      ...        0 min,  0.042 sec (  0.215%)
 Dispersion                     ...        0 min,  0.185 sec (  0.952%)
 classical contributions        ...        0 min,  0.006 sec (  0.033%)
 integral evaluation            ...        0 min,  0.769 sec (  3.955%)
 iterations                     ...        0 min, 17.632 sec ( 90.667%)
 molecular gradient             ...        0 min,  0.788 sec (  4.054%)
 printout                       ...        0 min,  0.024 sec (  0.123%)

         :::::::::::::::::::::::::::::::::::::::::::::::::::::
         ::                     SUMMARY                     ::
         :::::::::::::::::::::::::::::::::::::::::::::::::::::
         :: total energy            -180.540876834739 Eh    ::
         :: gradient norm              0.375458842252 Eh/a0 ::
         :: HOMO-LUMO gap              3.089469341691 eV    ::
         ::.................................................::
         :: SCC energy              -182.491094008048 Eh    ::
         :: -> isotropic ES            0.471763134644 Eh    ::
         :: -> anisotropic ES          0.008564476790 Eh    ::
         :: -> anisotropic XC          0.043361458180 Eh    ::
         :: -> dispersion             -0.133956622351 Eh    ::
         :: repulsion energy           1.950217173308 Eh    ::
         :: add. restraining           0.000000000000 Eh    ::
         :: total charge              -0.000000000000 e     ::
         :::::::::::::::::::::::::::::::::::::::::::::::::::::

           -------------------------------------------------
          |                Property Printout                |
           -------------------------------------------------

    * Orbital Energies and Occupations

         #    Occupation            Energy/Eh            Energy/eV
      -------------------------------------------------------------
         1        2.0000           -0.7220020             -19.6467
       ...           ...                  ...                  ...
       145        2.0000           -0.4133987             -11.2492
       146        2.0000           -0.4124329             -11.2229
       147        2.0000           -0.4111016             -11.1866
       148        2.0000           -0.4102598             -11.1637
       149        2.0000           -0.4090231             -11.1301
       150        2.0000           -0.4078619             -11.0985
       151        2.0000           -0.4065068             -11.0616
       152        2.0000           -0.3997477             -10.8777
       153        2.0000           -0.3995324             -10.8718
       154        2.0000           -0.3953285             -10.7574
       155        2.0000           -0.3941428             -10.7252
       156        2.0000           -0.3859185             -10.5014
       157        2.0000           -0.3732449             -10.1565 (HOMO)
       158                         -0.2597090              -7.0670 (LUMO)
       159                         -0.2499798              -6.8023
       160                         -0.2369758              -6.4484
       161                         -0.2356431              -6.4122
       162                         -0.2318299              -6.3084
       163                         -0.2308525              -6.2818
       164                         -0.2274316              -6.1887
       165                         -0.2262401              -6.1563
       166                         -0.2156754              -5.8688
       167                         -0.2143029              -5.8315
       168                         -0.2131519              -5.8002
       ...                                ...                  ...
       277                          0.6934815              18.8706
      -------------------------------------------------------------
                  HL-Gap            0.1135359 Eh            3.0895 eV
             Fermi-level           -0.3164770 Eh           -8.6118 eV

     #   Z          covCN         q      C6AA      α(0)
     1   7 N        2.691    -0.189    25.102     7.441
     2   6 C        3.797     0.037    19.950     6.360
     3   6 C        2.773     0.256    22.695     7.802
     4   8 O        0.859    -0.459    22.888     6.414
     5   7 N        2.676    -0.185    25.020     7.429
     6   6 C        3.772     0.003    20.568     6.463
     7   6 C        2.759     0.276    22.335     7.739
     8   6 C        3.785     0.022    20.225     6.406
     9   8 O        0.857    -0.392    21.528     6.221
    10   7 N        2.692    -0.192    25.174     7.452
    11   6 C        3.810    -0.119    22.767     6.792
    12   6 C        2.754     0.275    22.356     7.743
    13   6 C        2.730     0.292    22.039     7.686
    14   6 C        3.790     0.008    20.460     6.442
    15   8 O        0.857    -0.422    22.127     6.307
    16   8 O        0.858    -0.358    20.850     6.122
    17   7 N        2.631    -0.309    27.952     7.852
    18   7 N        2.692    -0.146    24.151     7.299
    19   6 C        3.774    -0.073    21.934     6.673
    20   6 C        2.758     0.274    22.370     7.745
    21   6 C        3.840     0.007    20.435     6.431
    22   6 C        3.814     0.011    20.383     6.426
    23   8 O        0.864    -0.450    22.712     6.390
    24   6 C        3.763    -0.112    22.691     6.790
    25   6 C        3.748    -0.125    22.957     6.834
    26   7 N        2.679    -0.192    25.160     7.450
    27   6 C        3.804    -0.063    21.707     6.633
    28   6 C        2.781     0.269    22.466     7.764
    29   6 C        3.790    -0.084    22.106     6.696
    30   6 C        3.792    -0.002    20.628     6.468
    31   8 O        0.858    -0.426    22.209     6.318
    32   6 C        2.747     0.288    22.110     7.699
    33   7 N        2.680    -0.199    25.313     7.472
    34   6 C        3.734     0.115    18.774     6.184
    35   8 O        0.861    -0.439    22.474     6.356
    36   7 N        2.638    -0.279    27.221     7.749
    37   6 C        2.744     0.284    22.183     7.712
    38   8 O        1.651    -0.478    22.416     6.391
    39   6 C        3.755    -0.118    22.808     6.810
    40   6 C        3.767    -0.001    20.638     6.475
    41   8 O        0.856    -0.396    21.592     6.230
    42   7 N        2.680    -0.174    24.774     7.392
    43   6 C        3.785    -0.065    21.754     6.644
    44   6 C        2.733     0.280    22.262     7.725
    45   6 C        3.800    -0.092    22.253     6.716
    46   8 O        0.857    -0.406    21.809     6.261
    47   6 C        2.740     0.281    22.249     7.723
    48   8 O        0.857    -0.450    22.713     6.390
    49   7 N        2.635    -0.268    26.932     7.707
    50   6 C        3.781    -0.070    21.858     6.660
    51   6 C        3.808    -0.093    22.276     6.719
    52   6 C        2.741     0.271    22.423     7.753
    53   8 O        0.860    -0.422    22.116     6.305
    54   7 N        2.636    -0.286    27.384     7.772
    55   6 C        3.661     0.055    19.925     6.405
    56   8 O        1.642    -0.442    21.693     6.287
    57   1 H        0.860     0.195     1.133     1.667
    58   1 H        0.925     0.064     2.150     2.293
    59   1 H        0.851     0.168     1.285     1.776
    60   1 H        0.926     0.105     1.741     2.064
    61   1 H        0.922     0.074     2.044     2.236
    62   1 H        0.861     0.183     1.197     1.714
    63   1 H        0.928     0.081     1.972     2.196
    64   1 H        0.923     0.074     2.047     2.238
    65   1 H        0.922     0.089     1.890     2.150
    66   1 H        0.861     0.194     1.136     1.670
    67   1 H        0.858     0.202     1.096     1.640
    68   1 H        0.856     0.198     1.116     1.655
    69   1 H        0.912     0.061     2.186     2.313
    70   1 H        0.919     0.031     2.567     2.506
    71   1 H        0.915     0.002     3.024     2.720
    72   1 H        0.926     0.117     1.636     2.000
    73   1 H        0.919     0.044     2.394     2.420
    74   1 H        0.922     0.046     2.374     2.410
    75   1 H        0.925     0.034     2.528     2.486
    76   1 H        0.911     0.022     2.704     2.572
    77   1 H        0.928     0.030     2.583     2.513
    78   1 H        0.918     0.063     2.160     2.299
    79   1 H        0.860     0.183     1.196     1.713
    80   1 H        0.922     0.065     2.142     2.289
    81   1 H        0.928     0.070     2.089     2.260
    82   1 H        0.922     0.057     2.233     2.337
    83   1 H        0.916     0.059     2.208     2.324
    84   1 H        0.925     0.101     1.780     2.086
    85   1 H        0.862     0.190     1.156     1.684
    86   1 H        0.926     0.039     2.467     2.456
    87   1 H        0.862     0.200     1.104     1.646
    88   1 H        0.861     0.179     1.219     1.729
    89   1 H        0.804     0.318     0.670     1.285
    90   1 H        0.928     0.061     2.183     2.310
    91   1 H        0.927     0.054     2.270     2.356
    92   1 H        0.919     0.044     2.401     2.424
    93   1 H        0.926     0.067     2.115     2.274
    94   1 H        0.861     0.178     1.227     1.735
    95   1 H        0.928     0.049     2.336     2.390
    96   1 H        0.916     0.049     2.339     2.392
    97   1 H        0.921     0.057     2.238     2.339
    98   1 H        0.924     0.107     1.721     2.051
    99   1 H        0.859     0.190     1.160     1.687
   100   1 H        0.862     0.193     1.143     1.675
   101   1 H        0.898     0.066     2.136     2.287
   102   1 H        0.922     0.075     2.030     2.228
   103   1 H        0.927     0.080     1.976     2.198
   104   1 H        0.929     0.043     2.415     2.430
   105   1 H        0.862     0.186     1.182     1.703
   106   1 H        0.861     0.211     1.053     1.607
   107   1 H        0.926     0.081     1.972     2.196
   108   1 H        0.925     0.043     2.415     2.430
   109   1 H        0.803     0.301     0.719     1.332

 Mol. C6AA /au·bohr⁶  :     113014.123102
 Mol. C8AA /au·bohr⁸  :    2500463.381386
 Mol. α(0) /au        :        499.512527


Wiberg/Mayer (AO) data.
largest (>0.10) Wiberg bond orders for each atom

 ---------------------------------------------------------------------------
     #   Z sym  total        # sym  WBO       # sym  WBO       # sym  WBO
 ---------------------------------------------------------------------------
     1   7 N    3.387 --     7 C    1.168     2 C    1.007    57 H    0.924
                             9 O    0.185
     2   6 C    3.977 --     1 N    1.007    50 C    0.970     3 C    0.947
                            58 H    0.947
     3   6 C    3.944 --     4 O    1.630     5 N    1.266     2 C    0.947
     4   8 O    1.970 --     3 C    1.630     5 N    0.183
     5   7 N    3.428 --     3 C    1.266     6 C    0.971    59 H    0.926
                             4 O    0.183
     6   6 C    3.951 --    55 C    0.976     5 N    0.971    60 H    0.951
                            44 C    0.896
     7   6 C    3.940 --     9 O    1.762     1 N    1.168     8 C    0.925
     8   6 C    3.966 --    11 C    0.980    10 N    0.976    61 H    0.953
                             7 C    0.925
     9   8 O    2.067 --     7 C    1.762     1 N    0.185
    10   7 N    3.419 --    12 C    1.239     8 C    0.976    62 H    0.931
                            15 O    0.189
    11   6 C    3.984 --     8 C    0.980    63 H    0.970    64 H    0.960
                            13 C    0.916
    12   6 C    3.951 --    15 O    1.698    10 N    1.239    14 C    0.940
    13   6 C    3.940 --    16 O    1.818    17 N    1.169    11 C    0.916
    14   6 C    3.962 --    18 N    1.006    19 C    0.952    12 C    0.940
                            65 H    0.927
    15   8 O    2.013 --    12 C    1.698    10 N    0.189
    16   8 O    2.113 --    13 C    1.818    17 N    0.171
    17   7 N    3.239 --    13 C    1.169    66 H    0.936    67 H    0.930
                            16 O    0.171
    18   7 N    3.493 --    20 C    1.293    14 C    1.006    68 H    0.921
                            23 O    0.203
    19   6 C    3.983 --    21 C    0.991    70 H    0.970    69 H    0.966
                            14 C    0.952
    20   6 C    3.952 --    23 O    1.627    18 N    1.293    22 C    0.956
    21   6 C    3.995 --    24 C    1.021    25 C    1.004    19 C    0.991
                            71 H    0.961
    22   6 C    3.956 --    27 C    0.974    26 N    0.963    20 C    0.956
                            72 H    0.930
    23   8 O    1.992 --    20 C    1.627    18 N    0.203
    24   6 C    3.988 --    21 C    1.021    75 H    0.980    74 H    0.977
                            73 H    0.971
    25   6 C    3.990 --    21 C    1.004    77 H    0.988    76 H    0.982
                            78 H    0.959
    26   7 N    3.403 --    28 C    1.242    22 C    0.963    79 H    0.927
                            31 O    0.181
    27   6 C    3.985 --    29 C    0.995    22 C    0.974    81 H    0.973
                            80 H    0.967
    28   6 C    3.948 --    31 O    1.701    26 N    1.242    30 C    0.934
    29   6 C    3.992 --    27 C    0.995    82 H    0.976    32 C    0.975
                            83 H    0.947
    30   6 C    3.961 --    33 N    0.982    84 H    0.949    34 C    0.944
                            28 C    0.934
    31   8 O    2.013 --    28 C    1.701    26 N    0.181
    32   6 C    3.938 --    35 O    1.690    36 N    1.236    29 C    0.975
    33   7 N    3.380 --    37 C    1.203    30 C    0.982    85 H    0.918
                            41 O    0.184
    34   6 C    3.960 --    39 C    1.009    38 O    0.986    86 H    0.963
                            30 C    0.944
    35   8 O    2.016 --    32 C    1.690    36 N    0.184
    36   7 N    3.349 --    32 C    1.236    88 H    0.951    87 H    0.941
                            35 O    0.184
    37   6 C    3.949 --    41 O    1.745    33 N    1.203    40 C    0.912
    38   8 O    1.937 --    34 C    0.986    89 H    0.860
    39   6 C    3.989 --    34 C    1.009    91 H    0.983    90 H    0.982
                            92 H    0.980
    40   6 C    3.946 --    43 C    0.967    93 H    0.961    42 N    0.958
                            37 C    0.912
    41   8 O    2.068 --    37 C    1.745    33 N    0.184
    42   7 N    3.445 --    44 C    1.275    40 C    0.958    94 H    0.940
                            46 O    0.199
    43   6 C    3.985 --    45 C    1.009    95 H    0.975    40 C    0.967
                            96 H    0.967
    44   6 C    3.948 --    46 O    1.701    42 N    1.275     6 C    0.896
    45   6 C    3.984 --    43 C    1.009    47 C    0.966    98 H    0.946
                            97 H    0.936
    46   8 O    2.064 --    44 C    1.701    42 N    0.199
    47   6 C    3.938 --    48 O    1.680    49 N    1.251    45 C    0.966
    48   8 O    1.975 --    47 C    1.680    49 N    0.174
    49   7 N    3.327 --    47 C    1.251    99 H    0.935   100 H    0.934
                            48 O    0.174
    50   6 C    3.982 --    51 C    1.002     2 C    0.970   102 H    0.965
                           101 H    0.965
    51   6 C    3.995 --    50 C    1.002   104 H    0.976    52 C    0.968
                           103 H    0.949
    52   6 C    3.949 --    53 O    1.719    54 N    1.232    51 C    0.968
    53   8 O    2.009 --    52 C    1.719    54 N    0.188
    54   7 N    3.340 --    52 C    1.232   105 H    0.951   106 H    0.936
                            53 O    0.188
    55   6 C    3.959 --    56 O    0.997   108 H    0.976     6 C    0.976
                           107 H    0.973
    56   8 O    1.941 --    55 C    0.997   109 H    0.895
    57   1 H    0.962 --     1 N    0.924
    58   1 H    0.996 --     2 C    0.947
    59   1 H    0.971 --     5 N    0.926
    60   1 H    0.989 --     6 C    0.951
    61   1 H    0.994 --     8 C    0.953
    62   1 H    0.967 --    10 N    0.931
    63   1 H    0.993 --    11 C    0.970
    64   1 H    0.994 --    11 C    0.960
    65   1 H    0.992 --    14 C    0.927
    66   1 H    0.962 --    17 N    0.936
    67   1 H    0.959 --    17 N    0.930
    68   1 H    0.961 --    18 N    0.921
    69   1 H    0.996 --    19 C    0.966
    70   1 H    0.999 --    19 C    0.970
    71   1 H    1.000 --    21 C    0.961
    72   1 H    0.985 --    22 C    0.930
    73   1 H    0.998 --    24 C    0.971
    74   1 H    0.998 --    24 C    0.977
    75   1 H    0.998 --    24 C    0.980
    76   1 H    0.999 --    25 C    0.982
    77   1 H    0.999 --    25 C    0.988
    78   1 H    0.996 --    25 C    0.959
    79   1 H    0.966 --    26 N    0.927
    80   1 H    0.995 --    27 C    0.967
    81   1 H    0.995 --    27 C    0.973
    82   1 H    0.997 --    29 C    0.976
    83   1 H    0.996 --    29 C    0.947
    84   1 H    0.989 --    30 C    0.949
    85   1 H    0.964 --    33 N    0.918
    86   1 H    0.998 --    34 C    0.963
    87   1 H    0.960 --    36 N    0.941
    88   1 H    0.968 --    36 N    0.951
    89   1 H    0.899 --    38 O    0.860
    90   1 H    0.996 --    39 C    0.982
    91   1 H    0.997 --    39 C    0.983
    92   1 H    0.998 --    39 C    0.980
    93   1 H    0.994 --    40 C    0.961
    94   1 H    0.968 --    42 N    0.940
    95   1 H    0.997 --    43 C    0.975
    96   1 H    0.997 --    43 C    0.967
    97   1 H    0.997 --    45 C    0.936
    98   1 H    0.989 --    45 C    0.946
    99   1 H    0.964 --    49 N    0.935
   100   1 H    0.963 --    49 N    0.934
   101   1 H    0.995 --    50 C    0.965
   102   1 H    0.994 --    50 C    0.965
   103   1 H    0.993 --    51 C    0.949
   104   1 H    0.998 --    51 C    0.976
   105   1 H    0.966 --    54 N    0.951
   106   1 H    0.955 --    54 N    0.936
   107   1 H    0.993 --    55 C    0.973
   108   1 H    0.998 --    55 C    0.976
   109   1 H    0.909 --    56 O    0.895
 ---------------------------------------------------------------------------

Topologies differ in total number of bonds
Writing topology from bond orders to xtbtopo.mol

molecular dipole:
                 x           y           z       tot (Debye)
 q only:        1.497      -0.657       3.656
   full:        2.205      -0.993       4.305      12.549
molecular quadrupole (traceless):
                xx          xy          yy          xz          yz          zz
 q only:       39.423      47.122      -0.109      16.757     -38.531     -39.315
  q+dip:       45.442      67.216      -0.260      25.665     -47.835     -45.182
   full:       45.224      67.417      -1.078      25.805     -47.748     -44.146


           -------------------------------------------------
          | TOTAL ENERGY             -180.540876834739 Eh   |
          | GRADIENT NORM               0.375458842252 Eh/α |
          | HOMO-LUMO GAP               3.089469341691 eV   |
           -------------------------------------------------

------------------------------------------------------------------------
 * finished run on 2026/05/23 at 12:37:08.555     
------------------------------------------------------------------------
 total:
 * wall-time:     0 d,  0 h,  0 min, 20.302 sec
 *  cpu-time:     0 d,  0 h,  0 min, 24.239 sec
 * ratio c/w:     1.194 speedup
 SCF:
 * wall-time:     0 d,  0 h,  0 min, 19.449 sec
 *  cpu-time:     0 d,  0 h,  0 min, 23.126 sec
 * ratio c/w:     1.189 speedup

normal termination of xtb
