110
pH=6.29 total_charge=0 partial_charge_sum=-0.000000 method=gasteiger energy=-550.88699950
N   2.65364406 -2.09868305 -1.24746569
C   1.48694710 -2.57070758 -1.96573249
C   0.22827387 -2.35033248 -1.08297054
O  -0.03333310 -1.26361407 -0.53685549
N  -0.65315286 -3.40962526 -0.98383169
C  -2.01564044 -3.37486986 -0.41646819
C   3.70635829 -1.50311961 -1.84718958
C   4.92456447 -1.17142685 -1.02857709
O   3.62463237 -1.29963508 -3.05190546
N   4.59735350 -1.42541165  0.40195530
C   6.23007026 -1.99678975 -1.23056978
C   5.29386594 -2.51208027  0.94948096
C   3.76669852 -0.68987047  1.25007272
C   6.65264331 -2.33387384  0.19556843
C   3.56398690  0.73679123  0.89896732
O   3.26867744 -1.09254195  2.28379820
N   2.48878865  0.74705093 -0.08152434
C   3.35500574  1.56917699  2.14815393
C   2.36450320  1.86576084 -0.86927464
C   4.58953640  1.63807729  2.96054411
C   1.24121460  1.70478148 -1.89802255
O   3.06924999  2.82397583 -0.86452691
N   4.41019370  1.97418167  4.33917030
C   5.90100080  1.65435007  2.61298437
N   0.01695630  2.56960459 -1.77489978
C   1.84285124  2.13688575 -3.19107171
C   5.61528517  2.04450848  4.72755624
N   6.57517938  1.75928225  3.83098282
C  -0.30366901  3.12266071 -3.04198626
C  -0.84956296  2.02357295 -0.81072997
C   0.64563300  2.47015115 -4.03028887
C  -2.37689854  2.30930077 -0.82157893
O  -0.42485733  1.32310297  0.07268194
N  -2.97031173  0.94188857 -0.75601989
C  -2.77805906  3.23195969  0.51035942
C  -4.13842676  0.63894928 -1.32911596
C  -2.96356331  4.72151491  0.17904824
C  -4.62170624 -0.71892837 -1.05648333
O  -4.79014712  1.34401126 -2.07737503
C  -1.78318254  5.42933862 -0.51288285
N  -3.75205253 -1.59669054 -0.25735444
C  -5.96365228 -0.44519978 -0.42431628
C  -0.59527837  5.75693955  0.44973810
C  -2.79193887 -2.24384022 -1.02571915
C  -6.99946716 -1.62079750 -0.40508377
N  -0.87003256  6.81895818  1.45504006
O  -2.58436270 -2.00433620 -2.23241846
C  -6.72017392 -3.16930099 -0.24617805
C  -6.07043929 -3.94260748 -1.30299521
N  -6.77357933 -3.95206273 -2.69394133
C  -2.12055145 -3.55622669  1.10020296
C  -1.36160955 -2.50219220  1.88119925
C  -1.67224463 -4.90330501  1.73945699
H   2.64025560 -2.20587967 -0.22688144
H   1.42733430 -2.12850827 -2.94322653
H   1.49726841 -3.61866942 -2.02444461
H  -0.60177936 -4.23630510 -1.53381792
H  -2.44200641 -4.35879009 -0.78649979
H   5.04953310 -0.11181432 -1.27920309
H   7.06883904 -1.31456056 -1.66298999
H   6.12934566 -2.89354614 -1.87374906
H   5.42158060 -2.37885492  2.09352957
H   4.81710481 -3.45288228  0.78824839
H   7.25407303 -3.21032688  0.30044785
H   7.34061397 -1.61511558  0.60276623
H   4.31256239  1.18477942  0.28649821
H   1.77644397  0.01416030 -0.23693924
H   3.07734794  2.65044136  1.98245453
H   2.64120911  1.06048903  2.76906979
H   0.95354405  0.60543013 -1.79630610
H   6.41708415  1.32924634  1.66911826
H   2.53595640  2.92455283 -2.96905210
H   2.43772597  1.31019346 -3.55167906
H   6.09637000  2.07592965  5.74189327
H   7.58653045  1.85839078  3.84546050
H  -0.22486171  4.22059325 -2.97973633
H  -1.33076874  2.98943040 -3.24515884
H   0.05429432  1.67717772 -4.46756975
H   0.89106672  3.28566005 -4.76560725
H  -2.79758674  2.92813058 -1.58484393
H  -2.49714162  0.41945677 -0.03211994
H  -3.80272933  3.00225634  0.83790276
H  -1.90815723  3.04984142  1.24125058
H  -3.46948099  5.25038851  0.98081013
H  -3.73343645  4.46715928 -0.60782559
H  -4.82861541 -1.20829092 -1.93943799
H  -1.95730940  6.46467775 -0.78902877
H  -1.36285265  5.03176595 -1.46437112
H  -4.18634406 -2.09004357  0.51023849
H  -6.41783806  0.41115116 -1.02516750
H  -5.80440101 -0.14484361  0.69859209
H  -0.20107144  4.90365199  1.08697947
H   0.24421145  6.19290302 -0.13520319
H  -7.73345895 -1.34795073 -1.30611984
H  -7.65490801 -1.28341226  0.45311910
H  -1.04599931  7.79006676  1.35842716
H  -0.58441523  6.60892062  2.36614014
H  -7.76858099 -3.53913927 -0.21745377
H  -6.19222742 -3.29962176  0.77560662
H  -5.98338644 -4.90851693 -0.88788459
H  -5.13218848 -3.51346713 -1.54431036
H  -6.35024807 -4.78048271 -3.16897525
H  -7.74034445 -4.10942559 -2.44153704
H  -3.16075420 -3.43552514  1.34438075
H  -0.20268520 -2.79729391  1.95933077
H  -1.31089017 -1.47614010  1.52254894
H  -1.62860724 -2.57012782  2.90923969
H  -1.49289673 -4.72791480  2.80387866
H  -2.50298875 -5.62576768  1.72387069
H  -0.68755164 -5.32337682  1.44869353
