110
pH=6.29 total_charge=0 partial_charge_sum=-0.000000 method=gasteiger energy=-551.36356200
N   2.66783229 -2.39493292 -1.50536964
C   1.58753817 -2.84123460 -2.37957216
C   0.29632330 -2.43827040 -1.62937691
O   0.07365248 -1.25953943 -1.34869409
N  -0.55899470 -3.46772678 -1.24738230
C  -1.74849040 -3.31654612 -0.46489363
C   3.62573290 -1.49810348 -1.84202143
C   4.82469382 -1.38989868 -0.88806843
O   3.64121722 -0.99531580 -2.95925200
N   4.43343542 -1.60735234  0.52946414
C   5.59701852 -2.65031687 -1.27230122
C   4.71023422 -2.89912001  0.96091093
C   3.50943941 -0.69715600  1.10193192
C   5.72295835 -3.45577298  0.04198297
C   3.48055328  0.81250413  0.67476281
O   2.89840427 -1.03506608  2.07750250
N   2.37872514  0.91817885 -0.26882981
C   3.31591780  1.74243908  1.89629039
C   2.13704325  2.07493198 -0.95056334
C   4.37489592  1.76202639  2.98829638
C   1.10445702  1.82740046 -2.01895708
O   2.75402628  3.11243841 -0.79896924
N   4.14012469  1.03414444  4.09995793
C   5.55172085  2.46571351  3.10118048
N  -0.12564487  2.53117319 -1.81606040
C   1.51332082  2.41835695 -3.34326949
C   5.05909866  1.39902066  4.90198344
N   5.94999601  2.23659408  4.40458427
C  -0.79767530  2.89462217 -3.07188453
C  -0.80640525  2.27148663 -0.71474329
C   0.17515683  2.59185295 -4.10790724
C  -2.32510545  2.64972055 -0.76773127
O  -0.25358951  1.67943427  0.20614659
N  -2.92556592  1.28887707 -0.55650013
C  -2.71997159  3.50348616  0.39725848
C  -3.50891251  0.65972927 -1.58882453
C  -2.30149715  4.94717834  0.35712894
C  -4.38250127 -0.54885752 -1.15948447
O  -3.31692662  0.96057613 -2.73243533
C  -0.81422474  5.08426041  0.31692974
N  -3.44158358 -1.46923786 -0.46506657
C  -5.63557890 -0.22546282 -0.31416856
C  -0.22511056  4.69202535  1.69426499
C  -2.71160213 -2.40262778 -1.16712866
C  -6.86740648 -1.10854320 -0.80778803
N  -0.51325817  5.67815032  2.75388467
O  -2.84860805 -2.56536700 -2.38179491
C  -7.03457166 -2.40767772 -0.05823058
C  -5.99938421 -3.53552463 -0.35963588
N  -6.62978045 -4.63843040 -1.15845663
C  -1.48630002 -3.10023634  1.07966001
C  -0.68376847 -1.85558966  1.64816688
C  -0.73819106 -4.34586702  1.57990336
H   2.63333871 -2.72120156 -0.57881488
H   1.69471345 -2.38494399 -3.30356872
H   1.51909917 -3.95219584 -2.62103813
H  -0.35372451 -4.43119640 -1.50770995
H  -2.40451955 -4.25936951 -0.55333575
H   5.15260813 -0.35179794 -1.15267163
H   6.62801261 -2.39076841 -1.61782520
H   5.07737805 -3.14171167 -2.04823328
H   5.08560039 -2.65094079  1.88546906
H   3.78212497 -3.50330060  1.04802301
H   5.45759328 -4.51957581 -0.11660033
H   6.64798259 -3.38856628  0.43822603
H   4.48906889  0.91840695  0.07228087
H   1.60811708  0.33425490  0.06864546
H   3.13491659  2.65704400  1.37872506
H   2.38487698  1.40430406  2.38443531
H   0.88909008  0.71894982 -2.12695764
H   5.97768164  3.09901204  2.35629986
H   1.79369157  3.45993456 -3.12299323
H   2.29096110  1.96161446 -3.88594022
H   5.13419386  0.95167769  5.85999695
H   6.86662548  2.39868563  4.83626554
H  -1.04679373  4.00189614 -3.02210063
H  -1.70761802  2.26710244 -3.12957062
H  -0.21497415  1.70731845 -4.55774589
H   0.21150367  3.41405903 -4.81602419
H  -2.80510787  3.23780456 -1.69167873
H  -3.46455444  1.12142171  0.32626392
H  -3.81418861  3.38636795  0.48065083
H  -2.43061321  3.03457448  1.39565055
H  -2.78318919  5.51376498  1.11190927
H  -2.82954765  5.23551124 -0.63104950
H  -4.79757315 -0.96026721 -2.08740084
H  -0.55496429  6.20114169  0.24555329
H  -0.30309595  4.66254338 -0.60705184
H  -3.04225149 -1.32709810  0.45561624
H  -5.80383266  0.89070033 -0.36427787
H  -5.28323211 -0.32993598  0.76572589
H  -0.54343350  3.62779074  2.08213363
H   0.83321213  4.58726714  1.50618902
H  -6.81021054 -1.40424073 -1.87725123
H  -7.72842560 -0.44185777 -0.64152355
H  -0.76119840  6.56659135  2.37899396
H  -1.20948250  5.46809001  3.46201224
H  -8.05905906 -2.78972086 -0.03586762
H  -6.85504249 -2.17817986  0.98519902
H  -5.60175189 -4.02944962  0.49136418
H  -5.11127135 -3.03983447 -0.76075975
H  -7.37415916 -4.20288263 -1.64644985
H  -5.97600417 -5.31033282 -1.62575123
H  -2.47089004 -3.17237976  1.58563704
H   0.10913743 -1.77672691  0.92650227
H  -1.32768123 -0.98386137  1.65364969
H  -0.33085640 -2.02187627  2.65070063
H  -0.65861833 -4.37032751  2.67678118
H  -1.09922766 -5.28953194  1.27017894
H   0.40670052 -4.39816338  1.21475064
