110
pH=6.29 total_charge=0 partial_charge_sum=-0.000000 method=gasteiger energy=-550.87918700
N   3.03455564 -2.31792948 -1.30974277
C   1.87393356 -2.84071052 -2.04270102
C   0.67193529 -2.57180818 -1.09803320
O   0.71682456 -1.54146283 -0.35837633
N  -0.41555303 -3.46983153 -1.12689354
C  -1.67758145 -3.29897190 -0.53625066
C   3.93499561 -1.46850278 -1.88134036
C   4.94926133 -0.93440028 -0.90340225
O   3.95213436 -1.21099134 -3.11181248
N   4.57295383 -1.21248376  0.50544564
C   6.30525478 -1.63534764 -0.99610885
C   5.47534194 -2.18524468  1.16718522
C   3.97543935 -0.37828439  1.45983931
C   6.26930866 -2.78791137  0.01030892
C   3.40940680  0.96858532  1.09433889
O   3.94943560 -0.69123811  2.61184499
N   2.27566691  0.74134954  0.15208344
C   3.05713484  1.79718352  2.27191871
C   1.69938436  1.80582905 -0.51748535
C   4.37534514  1.99005843  3.05740571
C   0.76613907  1.23554973 -1.63383767
O   2.05699902  2.89990544 -0.29162832
N   4.65530420  1.94850264  4.41420642
C   5.38339326  2.84165023  2.56631173
N  -0.56799430  2.07116284 -1.65169054
C   1.32377399  1.45883267 -3.02574823
C   5.77759283  2.48185165  4.73222996
N   6.30331009  3.10483950  3.62899429
C  -0.93752978  2.44519632 -3.07820049
C  -1.43008027  1.85438345 -0.63440967
C  -0.02679368  1.43439883 -3.82221172
C  -2.84927385  2.45421740 -0.48414136
O  -1.12269576  1.21258575  0.29774969
N  -3.57631266  1.18989606 -0.43386491
C  -2.97380074  3.31911400  0.83385755
C  -4.03137319  0.55658962 -1.62155718
C  -2.87592039  4.81143318  0.60829541
C  -4.48411507 -0.90322877 -1.43313138
O  -4.19529215  1.19814879 -2.63292068
C  -1.97825280  5.42436012 -0.49406540
N  -3.52258564 -1.64152854 -0.53132568
C  -5.84686996 -0.90881518 -0.74972030
C  -0.54679269  6.02371306 -0.16194841
C  -2.33321338 -2.06414438 -1.08909672
C  -6.90154810 -1.97724272 -0.91443540
N  -0.63906286  7.39247638  0.33516391
O  -1.83366014 -1.43561513 -2.03534585
C  -6.60570474 -3.38442122 -0.45778888
C  -5.76188695 -4.41507892 -1.33280073
N  -6.58241380 -4.85296761 -2.49893478
C  -1.76520716 -3.55752155  1.02647205
C  -1.16749653 -2.47577633  1.95155412
C  -1.19026661 -4.94099675  1.34186325
H   2.97972216 -2.52667524 -0.38611233
H   1.86825282 -2.31479999 -2.98863549
H   1.83604285 -3.89783245 -2.24325136
H  -0.27497683 -4.14071873 -1.82358738
H  -2.31814120 -4.09521781 -1.00741187
H   4.83647838  0.15006274 -1.10502966
H   7.01170357 -0.82908735 -0.65633426
H   6.34341691 -1.77319862 -2.06164417
H   6.19873793 -1.75970820  1.93311202
H   4.83844409 -2.97280157  1.59869569
H   5.72320446 -3.68145870 -0.32068564
H   7.24523694 -3.10268431  0.41212132
H   4.29993098  1.43529733  0.63441569
H   1.88932147 -0.10370642 -0.13635720
H   2.67299258  2.81415418  1.79636743
H   2.31337019  1.36067445  2.89503719
H   0.47744933  0.23826253 -1.39313700
H   5.72648835  3.04191325  1.57088037
H   1.85582585  2.37512936 -3.16543242
H   2.01815922  0.66127753 -3.30902135
H   6.08128549  2.57603682  5.84941900
H   7.18579361  3.66440945  3.59395088
H  -0.87247527  3.45195665 -3.35509183
H  -2.00269886  2.11899444 -3.09732836
H  -0.38117109  0.45034887 -3.60116546
H   0.03227538  1.64417318 -4.90373386
H  -3.24164986  2.94714256 -1.39207252
H  -3.01600326  0.75677641  0.29735915
H  -3.95113290  3.07351418  1.03867561
H  -2.45219164  2.86704172  1.64021171
H  -2.72339589  5.38018144  1.56203721
H  -3.87217151  5.21068744  0.31725399
H  -4.44178186 -1.33118274 -2.39787426
H  -2.59984590  6.18163904 -0.91707591
H  -1.81627907  4.68431713 -1.23878303
H  -3.96010402 -2.42681297  0.06620431
H  -6.41568275 -0.08245892 -1.15218923
H  -5.57808040 -0.72335874  0.26812852
H  -0.18048271  5.49699335  0.70216241
H   0.20033014  5.98964543 -0.99381128
H  -7.15374402 -2.19279370 -2.00321064
H  -7.84205998 -1.42337004 -0.47159898
H  -0.99778908  8.14143525 -0.29293860
H  -0.97012609  7.46829672  1.27645935
H  -7.55504047 -3.87407805 -0.25652856
H  -6.06596027 -3.38153173  0.49315006
H  -5.67516901 -5.20199362 -0.64811917
H  -4.74032107 -4.03346600 -1.59176577
H  -6.90397479 -4.14998775 -3.12095599
H  -5.98511355 -5.45436266 -3.05169793
H  -2.87927769 -3.62344680  1.13906581
H  -0.19876560 -2.65352703  2.32325863
H  -1.31734096 -1.50821561  1.47193014
H  -1.84740812 -2.45943303  2.81818123
H  -1.67458947 -5.28816906  2.27728542
H  -1.51578644 -5.74991171  0.63626730
H  -0.08244269 -4.92304680  1.66951844
