110
pH=6.29 total_charge=0 partial_charge_sum=-0.000000 method=gasteiger energy=-551.05887450
N   2.69609132 -2.26735992 -1.18536231
C   1.65593258 -2.87707478 -1.94539031
C   0.23363225 -2.33523630 -1.57405089
O  -0.02480677 -1.21842661 -1.51286741
N  -0.57319341 -3.36990315 -1.25354666
C  -1.88930947 -3.22137143 -0.59176499
C   3.69720972 -1.48042319 -1.78560055
C   4.89825224 -1.18226963 -0.97707921
O   3.59366887 -1.12205562 -2.91479130
N   4.76656182 -1.36160692  0.44033021
C   5.87466682 -2.36744158 -1.38984114
C   5.32871439 -2.64688025  0.87163483
C   3.84213082 -0.68886321  1.21542313
C   6.44342883 -2.84924193 -0.05005838
C   3.38168934  0.79403378  0.89327540
O   3.32384907 -1.23576370  2.14640824
N   2.35904387  0.83625213 -0.18834818
C   2.96244593  1.43285165  2.18514926
C   2.34653410  1.78605212 -1.13916436
C   4.21417084  1.49535933  3.11062979
C   1.22713992  1.53724974 -2.15065902
O   3.12719667  2.74771185 -1.14145142
N   4.08550338  1.78125635  4.49714228
C   5.54543909  1.35654416  2.84061737
N   0.02217067  2.28588371 -1.88741386
C   1.55837939  2.01263614 -3.56725694
C   5.29427354  1.99632416  4.93400993
N   6.24090820  1.77729224  3.99600420
C  -0.46143757  2.98969674 -3.04877018
C  -0.56937987  2.03730910 -0.69846017
C   0.12367996  2.12373572 -4.11373706
C  -2.06730518  2.27020589 -0.64361282
O  -0.06017184  1.45892282  0.30039140
N  -2.66288659  0.94816764 -0.80600986
C  -2.46519576  2.84959193  0.68110456
C  -3.84928956  0.80956441 -1.52233516
C  -2.79191798  4.41720040  0.64871408
C  -4.54192893 -0.54122311 -1.24036324
O  -4.30960798  1.71466546 -2.07851633
C  -1.86879739  5.45295424  0.28780571
N  -3.63784959 -1.45761461 -0.58811856
C  -5.72246448 -0.18975649 -0.36496005
C  -0.65357989  5.68392694  1.21672702
C  -2.78084169 -2.22968335 -1.41528086
C  -6.78232275 -1.33057205 -0.24765630
N  -0.96095881  5.78732315  2.62547493
O  -2.70699384 -2.14602695 -2.64113014
C  -6.58015285 -2.78545592  0.07419937
C  -6.24967833 -3.66966462 -1.16643254
N  -7.47772104 -3.59043453 -2.00508841
C  -1.69374059 -3.03325162  0.91202702
C  -1.29973141 -1.57210505  1.26071828
C  -0.91138418 -4.05323931  1.61233473
H   2.70572260 -2.43798075 -0.11414399
H   1.84571568 -2.62696369 -2.99839387
H   1.60880736 -3.98545549 -1.83769730
H  -0.26073675 -4.25011885 -1.58730088
H  -2.40443168 -4.15822923 -0.75555726
H   5.16529582 -0.16618548 -1.13274698
H   6.57630999 -2.03186372 -2.11660681
H   5.21296010 -3.16150666 -1.84570934
H   5.52208367 -2.42570198  1.98673065
H   4.58739186 -3.46988304  0.79523723
H   6.87653068 -3.88596153 -0.12852121
H   7.23017824 -2.12533702  0.29866940
H   4.29813997  1.34180121  0.58335966
H   1.64746444  0.11413614 -0.18296820
H   2.66836085  2.39551353  1.82199462
H   2.17314712  0.86078079  2.73739673
H   0.78766029  0.51816882 -2.09077430
H   6.10660643  1.23934242  2.01824818
H   2.05166844  2.97321957 -3.53305295
H   2.28693817  1.21831341 -4.05276357
H   5.59062488  2.26083804  5.98223596
H   7.23918613  1.67938103  4.06697213
H   0.02709359  3.99234334 -3.03562974
H  -1.56114298  3.04843225 -3.08625632
H  -0.29451564  1.10446697 -4.08395065
H   0.11709436  2.56984232 -5.06320685
H  -2.47189811  2.74427324 -1.58561374
H  -1.98342572  0.24888309 -0.61596118
H  -3.36417303  2.31999687  0.97718288
H  -1.75476383  2.63721927  1.40201495
H  -3.00931070  4.74275990  1.68699349
H  -3.63262534  4.61461516 -0.04597028
H  -4.78155892 -1.06620647 -2.31608068
H  -2.43960158  6.38929508  0.29596893
H  -1.50165751  5.45218216 -0.75322161
H  -3.81120082 -1.73223683  0.33316092
H  -6.39148855  0.58536961 -0.90160228
H  -5.29866372  0.21451399  0.48957832
H   0.01461140  4.82411074  1.04226462
H  -0.29434848  6.67285204  0.86918442
H  -7.28829383 -1.36345301 -1.16304260
H  -7.45864394 -0.99182161  0.52735989
H  -1.46668169  6.69742603  2.85585586
H  -1.34620481  5.07631709  3.18902928
H  -7.54431357 -3.29926358  0.32174715
H  -6.03611806 -2.97166866  0.98211101
H  -6.02109524 -4.78707637 -1.03328144
H  -5.40140061 -3.21106466 -1.67781546
H  -7.19991214 -3.24135824 -2.96677012
H  -8.20684556 -4.25846002 -1.84489597
H  -2.56192466 -3.23210953  1.51481129
H  -0.16904539 -1.38124683  1.07191662
H  -1.90241723 -0.94297488  0.67712690
H  -1.51821974 -1.35866605  2.29974075
H  -0.80428131 -3.76227522  2.62387211
H  -1.42771976 -5.05011498  1.67320620
H   0.16340566 -4.24558100  1.33253760
