110
pH=6.29 total_charge=0 partial_charge_sum=-0.000000 method=gasteiger energy=-550.86356200
N   2.75168825 -2.34426922 -1.16119200
C   1.54739601 -2.80184151 -2.06914613
C   0.21216839 -2.43920752 -1.47581455
O  -0.14187378 -1.29133397 -1.39727003
N  -0.58793933 -3.46773719 -1.17473045
C  -1.91302308 -3.30691641 -0.49265023
C   3.65686654 -1.54271714 -1.74179284
C   4.97178534 -1.17764681 -1.00389960
O   3.44176789 -1.25019699 -2.89279288
N   4.92554544 -1.18889197  0.42467144
C   6.09109670 -2.30463028 -1.38998034
C   5.35891628 -2.50367143  0.86096128
C   3.89845500 -0.62340273  1.15932690
C   6.56313071 -2.80845582 -0.01564208
C   3.55251510  0.76353500  0.95221723
O   3.36786523 -1.26523164  2.09819489
N   2.51154723  0.73756686 -0.14999852
C   3.13716760  1.48088100  2.16933398
C   2.37918494  1.75338235 -1.13675195
C   4.20857705  1.68923721  3.13181695
C   1.25708893  1.55496632 -2.11972448
O   3.00844530  2.80959139 -1.02259069
N   4.06134500  1.83013055  4.48285381
C   5.56736642  1.44032793  2.86368740
N   0.11221944  2.37776732 -1.82828281
C   1.57663499  1.99970736 -3.61254749
C   5.35502929  1.79369219  4.97143257
N   6.20433532  1.70352125  3.94546792
C  -0.51624555  3.05170281 -2.98096836
C  -0.53426291  2.14970698 -0.69612514
C   0.20644210  2.36001709 -4.11472522
C  -2.07118825  2.23661547 -0.62103374
O  -0.13329742  1.46064227  0.22827964
N  -2.53083016  0.88280903 -0.81163515
C  -2.57627997  2.93738101  0.73146025
C  -3.76052995  0.74487030 -1.40880486
C  -2.94112984  4.48542287  0.51326632
C  -4.53648320 -0.65693315 -1.35665433
O  -4.31526056  1.76064277 -1.80711455
C  -1.77879105  5.33209775  0.03706349
N  -3.77939735 -1.73655877 -0.69132780
C  -5.70005754 -0.25108041 -0.39246031
C  -0.70017374  5.65066829  1.01168339
C  -2.78997805 -2.28275538 -1.37480319
C  -6.95508077 -1.17740550 -0.23831106
N  -1.03776389  6.05672250  2.31189901
O  -2.59740881 -2.19334902 -2.53086541
C  -6.71219019 -2.74124088  0.03242301
C  -6.37475552 -3.55056750 -1.23605273
N  -7.51010946 -3.85334735 -2.23456891
C  -1.86223973 -3.00989104  1.03459079
C  -1.29614068 -1.68345977  1.51960476
C  -1.03640702 -4.06995236  1.59517940
H   2.62494264 -2.55007524 -0.17193344
H   1.62379414 -2.10912805 -2.95329523
H   1.69371438 -3.83860702 -2.35277323
H  -0.21899194 -4.39297988 -1.22964615
H  -2.34033070 -4.32750442 -0.56218089
H   5.25753697 -0.16579551 -1.45745095
H   6.92250581 -1.85541440 -1.87642776
H   5.71187827 -3.09888919 -1.96858100
H   5.66806954 -2.53920038  1.86148575
H   4.62012735 -3.27418902  0.68912736
H   6.81537270 -3.84346079  0.10305060
H   7.40946104 -2.17047989  0.30669357
H   4.35173227  1.31574632  0.49793381
H   1.61139199  0.33600801 -0.01047810
H   2.65810937  2.35269243  1.88468439
H   2.37623652  0.96433354  2.75490801
H   0.99273116  0.52809015 -2.03489825
H   6.19055116  1.35380276  1.86453826
H   2.36983779  2.79346663 -3.39650119
H   2.12644934  1.07202154 -4.02344284
H   5.60885828  1.95176763  6.00181765
H   7.18967908  1.76277123  4.12888911
H  -0.38193766  4.11186819 -2.98720472
H  -1.56475447  2.83340723 -2.91992274
H  -0.46870532  1.47648337 -4.40548036
H   0.11445872  2.96293137 -5.00872126
H  -2.56278958  2.94116240 -1.30595838
H  -1.95330604  0.06607250 -0.48817578
H  -3.43007817  2.43707085  1.11706768
H  -1.81186403  2.80891167  1.46835854
H  -3.34356104  4.94242467  1.49538526
H  -3.87504519  4.43021772 -0.07649802
H  -4.75215843 -1.01075458 -2.48291930
H  -2.21873659  6.25758891 -0.15195484
H  -1.22123454  4.96425769 -0.86444629
H  -3.67998676 -1.64756614  0.33586057
H  -6.16628012  0.76385084 -0.51051585
H  -5.24524012 -0.17075241  0.56821912
H   0.13400605  4.91470308  1.11189279
H  -0.09043870  6.46892510  0.47806209
H  -7.56509247 -1.06840696 -1.15180335
H  -7.58388936 -0.77094637  0.49952929
H  -1.70413347  6.83419866  2.42495109
H  -1.26418662  5.41842455  2.99922884
H  -7.55525808 -3.00941058  0.67612036
H  -5.81502437 -2.68223222  0.61373772
H  -5.82154199 -4.47597838 -0.83065227
H  -5.69090124 -3.02472237 -1.84641251
H  -7.15228410 -3.39378409 -3.08782324
H  -7.66498485 -4.84095834 -2.41758161
H  -2.88571117 -2.99151043  1.41518872
H  -0.43722531 -1.28719599  1.04015099
H  -2.08412987 -0.85495442  1.36533189
H  -1.13655295 -1.64746895  2.66241407
H  -0.99333732 -3.88487937  2.67735207
H  -1.62929649 -4.97403406  1.48634140
H  -0.07719406 -4.19766135  1.00509847
