110
pH=6.29 total_charge=0 partial_charge_sum=-0.000000 method=gasteiger energy=-554.50418700
N   2.68427502 -2.48777828 -1.50009262 -0.34524583
C   1.59459803 -2.64001716 -2.46320229  0.09671514
C   0.27746843 -2.43381256 -1.78066243  0.23955511
O  -0.21708166 -1.27634979 -1.73807990 -0.27304467
N  -0.40057139 -3.54054005 -1.16032829 -0.34252446
C  -1.63473879 -3.42761564 -0.36327116  0.11000735
C   3.75263417 -1.53878943 -1.66284465  0.24274307
C   4.88807416 -1.48385002 -0.67083610  0.11063519
O   3.77145451 -0.76467887 -2.65787479 -0.27270481
N   4.40225893 -1.57716669  0.70132445 -0.32887574
C   5.83102612 -2.67816989 -0.85491611 -0.02176824
C   4.97977329 -2.69475063  1.42608263  0.02147806
C   3.48700215 -0.65940906  1.32674398  0.24573767
C   6.10483800 -3.21898866  0.54613792 -0.03293701
C   3.33213778  0.76705612  0.83160068  0.11353851
O   2.77297910 -1.06679674  2.28415466 -0.27245671
N   2.33034832  0.80717050 -0.23589933 -0.34211818
C   2.93176997  1.72724402  1.97321083  0.02063909
C   2.15865551  1.92547443 -1.12153980  0.24296839
C   3.98436345  1.78643030  3.03974170  0.06067679
C   1.18057090  1.81791903 -2.27006841  0.11064382
O   2.78572490  3.00044967 -0.91648999 -0.27269583
N   3.90339729  1.13669170  4.21821825 -0.24192954
C   5.18979377  2.44554526  2.94907538  0.02363101
N  -0.12279578  2.40153996 -1.95671104 -0.32888708
C   1.65978477  2.53543684 -3.53434264 -0.02176809
C   5.07125942  1.42914215  4.82881665  0.09225697
N   5.86805253  2.21831665  4.08331700 -0.35090330
C  -0.62893702  3.20963842 -3.05835807  0.02147784
C  -0.88656683  2.09294673 -0.76625878  0.24532900
C   0.39815645  3.09466062 -4.17867104 -0.03293701
C  -2.31021781  2.55554917 -0.56944546  0.10795543
O  -0.36066920  1.41527262  0.15524914 -0.27247170
N  -3.15046422  1.37860393 -0.31906387 -0.34251326
C  -2.42338284  3.53198861  0.62314111 -0.02361804
C  -3.62361217  0.52863895 -1.37628211  0.24272686
C  -1.84987699  4.94027820  0.35364109 -0.04963431
C  -4.41804069 -0.71499184 -1.06469282  0.10773706
O  -3.36137718  0.80758323 -2.57766036 -0.27270465
C  -0.31571992  5.07220557  0.44970235 -0.04080171
N  -3.55644168 -1.66993604 -0.35824993 -0.34251232
C  -5.67195262 -0.36559579 -0.22959054 -0.02362617
C   0.30165763  4.64296795  1.79485102 -0.00772601
C  -2.66380863 -2.55188889 -1.06612708  0.24299359
C  -6.77614956 -1.43975597 -0.28425933 -0.04963444
N  -0.25978760  5.37085750  2.93217340 -0.33047349
O  -2.77728100 -2.66375837 -2.31798492 -0.27269267
C  -6.44030000 -2.72825907  0.49791475 -0.04080171
C  -6.01807704 -3.89268534 -0.41081409 -0.00772601
N  -7.18754073 -4.53570895 -1.00489108 -0.33047349
C  -1.31253607 -3.07002102  1.11938175 -0.01760785
C  -0.66615391 -1.68774346  1.29439875 -0.06029357
C  -0.41484235 -4.14093409  1.75898240 -0.06029357
H   2.70587577 -3.13804390 -0.68216471  0.16359043
H   1.68996656 -1.91577858 -3.30032052  0.05947612
H   1.63608215 -3.65997561 -2.90026533  0.05947612
H   0.02570959 -4.49030435 -1.25400010  0.16388066
H  -2.10177128 -4.43749027 -0.33772750  0.06349316
H   5.46276730 -0.53968299 -0.79388303  0.06345138
H   6.77607803 -2.36747030 -1.35160666  0.02937024
H   5.36171519 -3.48345452 -1.46413819  0.02937024
H   5.37977683 -2.35754231  2.40733469  0.04940774
H   4.20556967 -3.47715128  1.58177150  0.04940774
H   6.13833465 -4.33017161  0.55349798  0.02855806
H   7.07798006 -2.82299760  0.91162503  0.02855806
H   4.30670564  1.10524707  0.41778951  0.06364253
H   1.72571329 -0.03073475 -0.38704847  0.16389508
H   2.79131150  2.75313324  1.57762713  0.03595063
H   1.96155201  1.41418871  2.41734866  0.03595063
H   1.03531959  0.74800336 -2.52395404  0.06345153
H   5.55034717  3.03750454  2.11788255  0.08355648
H   2.33867077  3.38385106 -3.29970074  0.02937025
H   2.18658995  1.83620278 -4.22004469  0.02937025
H   5.34005473  1.06248155  5.81059869  0.10408786
H   6.81768194  2.57274024  4.33270949  0.16690687
H  -0.73368280  4.26633837 -2.73125009  0.04940774
H  -1.60580734  2.82068623 -3.41608567  0.04940774
H   0.03188342  2.38253052 -4.95102302  0.02855806
H   0.58908554  4.08075908 -4.65532024  0.02855806
H  -2.70190618  3.08015504 -1.46362254  0.06322231
H  -3.31446151  1.07825693  0.66888847  0.16388074
H  -3.50702791  3.66619470  0.83663100  0.02929714
H  -1.99019300  3.08620453  1.54204526  0.02929714
H  -2.30860971  5.65036631  1.07476637  0.02679166
H  -2.17200028  5.28076567 -0.65420722  0.02679166
H  -4.76432210 -1.15973292 -2.02452677  0.06321414
H  -0.05247896  6.13700072  0.26864405  0.02794783
H   0.16896872  4.49936542 -0.36320892  0.02794783
H  -3.51214148 -1.60450427  0.68063336  0.16388077
H  -6.11543858  0.57168189 -0.63423075  0.02929700
H  -5.39965232 -0.15665867  0.82798070  0.02929700
H   0.18695333  3.55032501  1.95203383  0.04254920
H   1.39339999  4.84438776  1.75545734  0.04254920
H  -7.03682722 -1.65748243 -1.34215451  0.02679166
H  -7.68791680 -0.99497969  0.17161031  0.02679166
H  -0.28188672  6.39330215  2.71276631  0.11837913
H  -1.24094631  5.04961797  3.09486363  0.11837913
H  -7.33240563 -3.04396045  1.08289162  0.02794783
H  -5.64187252 -2.53468607  1.24521102  0.02794783
H  -5.47391006 -4.64016987  0.20732686  0.04254920
H  -5.32846836 -3.54838560 -1.21021260  0.04254920
H  -7.56739025 -3.91131222 -1.75224735  0.11837913
H  -6.86170514 -5.40441698 -1.48733463  0.11837913
H  -2.26084199 -3.08667621  1.69809030  0.03234949
H   0.36415976 -1.67642929  0.88363553  0.02339914
H  -1.26453952 -0.90385967  0.79285115  0.02339914
H  -0.60868716 -1.43171320  2.37368757  0.02339914
H  -0.27631832 -3.92698511  2.84049193  0.02339914
H  -0.88308345 -5.14389681  1.66521673  0.02339914
H   0.58490881 -4.16425913  1.27436295  0.02339914
