      -----------------------------------------------------------      
     |                   =====================                   |     
     |                           x T B                           |     
     |                   =====================                   |     
     |                         S. Grimme                         |     
     |          Mulliken Center for Theoretical Chemistry        |     
     |                    University of Bonn                     |     
      -----------------------------------------------------------      

   * xtb version 6.7.1 (edcfbbe) compiled by 'albert@albert-system' on 2024-07-22

   xtb is free software: you can redistribute it and/or modify it under
   the terms of the GNU Lesser General Public License as published by
   the Free Software Foundation, either version 3 of the License, or
   (at your option) any later version.
   
   xtb is distributed in the hope that it will be useful,
   but WITHOUT ANY WARRANTY; without even the implied warranty of
   MERCHANTABILITY or FITNESS FOR A PARTICULAR PURPOSE.  See the
   GNU Lesser General Public License for more details.
   
   Cite this work as:
   * C. Bannwarth, E. Caldeweyher, S. Ehlert, A. Hansen, P. Pracht,
     J. Seibert, S. Spicher, S. Grimme, WIREs Comput. Mol. Sci., 2020, 11,
     e01493. DOI: 10.1002/wcms.1493
   
   for GFN2-xTB:
   * C. Bannwarth, S. Ehlert and S. Grimme., J. Chem. Theory Comput., 2019,
     15, 1652-1671. DOI: 10.1021/acs.jctc.8b01176
   for GFN1-xTB:
   * S. Grimme, C. Bannwarth, P. Shushkov, J. Chem. Theory Comput., 2017,
     13, 1989-2009. DOI: 10.1021/acs.jctc.7b00118
   for GFN0-xTB:
   * P. Pracht, E. Caldeweyher, S. Ehlert, S. Grimme, ChemRxiv, 2019, preprint.
     DOI: 10.26434/chemrxiv.8326202.v1
   for GFN-FF:
   * S. Spicher and S. Grimme, Angew. Chem. Int. Ed., 2020, 59, 15665-15673.
     DOI: 10.1002/anie.202004239
   
   for ALPB and GBSA implicit solvation:
   * S. Ehlert, M. Stahn, S. Spicher, S. Grimme, J. Chem. Theory Comput.,
     2021, 17, 4250-4261. DOI: 10.1021/acs.jctc.1c00471
   
   for ddCOSMO and CPCM-X implicit solvation:
   * M. Stahn, S. Ehlert, S. Grimme, J. Phys. Chem. A,
     2023, XX, XXXX-XXXX. DOI: 10.1021/acs.jpca.3c04382
   
   for DFT-D4:
   * E. Caldeweyher, C. Bannwarth and S. Grimme, J. Chem. Phys., 2017,
     147, 034112. DOI: 10.1063/1.4993215
   * E. Caldeweyher, S. Ehlert, A. Hansen, H. Neugebauer, S. Spicher,
     C. Bannwarth and S. Grimme, J. Chem. Phys., 2019, 150, 154122.
     DOI: 10.1063/1.5090222
   * E. Caldeweyher, J.-M. Mewes, S. Ehlert and S. Grimme, Phys. Chem. Chem. Phys.
     2020, 22, 8499-8512. DOI: 10.1039/D0CP00502A
   
   for sTDA-xTB:
   * S. Grimme and C. Bannwarth, J. Chem. Phys., 2016, 145, 054103.
     DOI: 10.1063/1.4959605
   
   in the mass-spec context:
   * V. Asgeirsson, C. Bauer and S. Grimme, Chem. Sci., 2017, 8, 4879.
     DOI: 10.1039/c7sc00601b
   * J. Koopman and S. Grimme, ACS Omega 2019, 4, 12, 15120-15133.
     DOI: 10.1021/acsomega.9b02011
   
   for metadynamics refer to:
   * S. Grimme, J. Chem. Theory Comput., 2019, 155, 2847-2862
     DOI: 10.1021/acs.jctc.9b00143
   
   for SPH calculations refer to:
   * S. Spicher and S. Grimme, J. Chem. Theory Comput., 2021, 17, 1701-1714
     DOI: 10.1021/acs.jctc.0c01306
   
   for ONIOM refer to:
   * C. Plett, A. Katbashev, S. Ehlert, S. Grimme, M. Bursch,
     Phys. Chem. Chem. Phys., 2023, 25, 17860-17868. DOI: 10.1039/D3CP02178E
   
   for DIPRO refer to:
   * J. Kohn, N. Gildemeister, S. Grimme, D. Fazzi, A. Hansen,
     J. Chem. Phys., 2023, just accepted.
   
   for PTB refer to:
   * S. Grimme, M. Mueller, A. Hansen, J. Chem. Phys., 2023, 158, 124111.
     DOI: 10.1063/5.0137838
   
   with help from (in alphabetical order)
   P. Atkinson, C. Bannwarth, F. Bohle, G. Brandenburg, E. Caldeweyher
   M. Checinski, S. Dohm, S. Ehlert, S. Ehrlich, I. Gerasimov, C. Hölzer
   A. Katbashev, J. Kohn, J. Koopman, C. Lavigne, S. Lehtola, F. März, M. Müller,
   F. Musil, H. Neugebauer, J. Pisarek, C. Plett, P. Pracht, F. Pultar,
   J. Seibert, P. Shushkov, S. Spicher, M. Stahn, M. Steiner, T. Strunk,
   J. Stückrath, T. Rose, and J. Unsleber
   
 * started run on 2026/05/23 at 12:31:05.494     
   ID    Z sym.   atoms
    1    7 N      1, 5, 10, 17, 27, 34, 39, 43, 54, 56, 57
    2    6 C      2, 3, 6-8, 11-14, 16, 18, 21-23, 28-31, 33, 35-38, 40,
                  44-48, 50-53, 55, 58
    3    8 O      4, 9, 15, 19, 20, 24-26, 32, 41, 49
    4   16 S      42
    5    1 H      59-117

           -------------------------------------------------
          |                Calculation Setup                |
           -------------------------------------------------

          program call               : /home/xchen/software/xtb-6.7.1/xtb-dist/bin/xtb /home/xchen/Test/benchmark/md_sampled/04_7_0231_n2/snap_0030.xyz --charge -2 --gfn 2 --norestart
          coordinate file            : /home/xchen/Test/benchmark/md_sampled/04_7_0231_n2/snap_0030.xyz
          omp threads                :                    48


           -------------------------------------------------
          |                 G F N 2 - x T B                 |
           -------------------------------------------------

        Reference                      10.1021/acs.jctc.8b01176
      * Hamiltonian:
        H0-scaling (s, p, d)           1.850000    2.230000    2.230000
        zeta-weighting                 0.500000
      * Dispersion:
        s8                             2.700000
        a1                             0.520000
        a2                             5.000000
        s9                             5.000000
      * Repulsion:
        kExp                           1.500000    1.000000
        rExp                           1.000000
      * Coulomb:
        alpha                          2.000000
        third order                    shell-resolved
        anisotropic                    true
        a3                             3.000000
        a5                             4.000000
        cn-shift                       1.200000
        cn-exp                         4.000000
        max-rad                        5.000000


          ...................................................
          :                      SETUP                      :
          :.................................................:
          :  # basis functions                 297          :
          :  # atomic orbitals                 296          :
          :  # shells                          176          :
          :  # electrons                       328          :
          :  max. iterations                   250          :
          :  Hamiltonian                  GFN2-xTB          :
          :  restarted?                      false          :
          :  GBSA solvation                  false          :
          :  PC potential                    false          :
          :  electronic temp.          300.0000000     K    :
          :  accuracy                    1.0000000          :
          :  -> integral cutoff          0.2500000E+02      :
          :  -> integral neglect         0.1000000E-07      :
          :  -> SCF convergence          0.1000000E-05 Eh   :
          :  -> wf. convergence          0.1000000E-03 e    :
          :  Broyden damping             0.4000000          :
          :  net charge                         -2          :
          :  unpaired electrons                  0          :
          ...................................................

 iter      E             dE          RMSdq      gap      omega  full diag
   1   -186.9766099 -0.186977E+03  0.420E+00    3.28       0.0  T
   2   -187.5032559 -0.526646E+00  0.219E+00    1.95       1.0  T
   3   -187.5328675 -0.296116E-01  0.121E+00    0.95       1.0  T
   4   -186.2829869  0.124988E+01  0.241E+00    0.26       1.0  T
   5   -187.5415180 -0.125853E+01  0.249E-01    0.41       1.0  T
   6   -187.5441075 -0.258950E-02  0.136E-01    0.37       1.0  T
   7   -187.5441352 -0.277406E-04  0.886E-02    0.44       1.0  T
   8   -187.5442579 -0.122615E-03  0.749E-02    0.44       1.0  T
   9   -187.5443012 -0.433519E-04  0.703E-02    0.41       1.0  T
  10   -187.5443741 -0.728620E-04  0.652E-02    0.37       1.0  T
  11   -187.5444550 -0.808849E-04  0.601E-02    0.34       1.0  T
  12   -187.5445673 -0.112310E-03  0.535E-02    0.30       1.0  T
  13   -187.5447837 -0.216427E-03  0.404E-02    0.26       1.0  T
  14   -187.5449080 -0.124315E-03  0.314E-02    0.24       1.0  T
  15   -187.5450587 -0.150718E-03  0.154E-02    0.22       1.0  T
  16   -187.5450896 -0.308781E-04  0.888E-03    0.21       1.0  T
  17   -187.5450685  0.211086E-04  0.131E-02    0.19       1.0  T
  18   -187.5451069 -0.384550E-04  0.367E-04    0.20      25.2  T
  19   -187.5451068  0.114816E-06  0.802E-04    0.20      11.5  T
  20   -187.5451069 -0.113338E-06  0.364E-04    0.20      25.4  T

   *** convergence criteria satisfied after 20 iterations ***

         #    Occupation            Energy/Eh            Energy/eV
      -------------------------------------------------------------
         1        2.0000           -0.5975032             -16.2589
       ...           ...                  ...                  ...
       158        2.0000           -0.2145906              -5.8393
       159        2.0000           -0.2009975              -5.4694
       160        2.0000           -0.1919404              -5.2230
       161        2.0000           -0.1863651              -5.0713
       162        2.0000           -0.1576015              -4.2886
       163        2.0000           -0.1430949              -3.8938
       164        1.9583           -0.1324392              -3.6039 (HOMO)
       165        0.0417           -0.1251238              -3.4048 (LUMO)
       166                         -0.1013349              -2.7575
       167                         -0.0911210              -2.4795
       168                         -0.0880023              -2.3947
       169                         -0.0869029              -2.3647
       ...                                ...                  ...
       296                          0.8384273              22.8148
      -------------------------------------------------------------
                  HL-Gap            0.0073154 Eh            0.1991 eV
             Fermi-level           -0.1287815 Eh           -3.5043 eV

 SCC (total)                   0 d,  0 h,  0 min, 31.645 sec
 SCC setup                      ...        0 min,  0.037 sec (  0.116%)
 Dispersion                     ...        0 min,  0.156 sec (  0.493%)
 classical contributions        ...        0 min,  0.007 sec (  0.021%)
 integral evaluation            ...        0 min,  0.408 sec (  1.290%)
 iterations                     ...        0 min, 30.223 sec ( 95.508%)
 molecular gradient             ...        0 min,  0.798 sec (  2.521%)
 printout                       ...        0 min,  0.016 sec (  0.050%)

         :::::::::::::::::::::::::::::::::::::::::::::::::::::
         ::                     SUMMARY                     ::
         :::::::::::::::::::::::::::::::::::::::::::::::::::::
         :: total energy            -185.528611004612 Eh    ::
         :: gradient norm              0.387421732234 Eh/a0 ::
         :: HOMO-LUMO gap              0.199060966480 eV    ::
         ::.................................................::
         :: SCC energy              -187.538880055754 Eh    ::
         :: -> isotropic ES            0.724778081595 Eh    ::
         :: -> anisotropic ES          0.017113615886 Eh    ::
         :: -> anisotropic XC          0.060146971035 Eh    ::
         :: -> dispersion             -0.140529316440 Eh    ::
         :: repulsion energy           2.010269051142 Eh    ::
         :: add. restraining           0.000000000000 Eh    ::
         :: total charge              -2.000000000000 e     ::
         :::::::::::::::::::::::::::::::::::::::::::::::::::::

           -------------------------------------------------
          |                Property Printout                |
           -------------------------------------------------

    * Orbital Energies and Occupations

         #    Occupation            Energy/Eh            Energy/eV
      -------------------------------------------------------------
         1        2.0000           -0.5975032             -16.2589
       ...           ...                  ...                  ...
       152        2.0000           -0.2408388              -6.5536
       153        2.0000           -0.2365588              -6.4371
       154        2.0000           -0.2345606              -6.3827
       155        2.0000           -0.2342867              -6.3753
       156        2.0000           -0.2302598              -6.2657
       157        2.0000           -0.2290591              -6.2330
       158        2.0000           -0.2145906              -5.8393
       159        2.0000           -0.2009975              -5.4694
       160        2.0000           -0.1919404              -5.2230
       161        2.0000           -0.1863651              -5.0713
       162        2.0000           -0.1576015              -4.2886
       163        2.0000           -0.1430949              -3.8938
       164        1.9583           -0.1324392              -3.6039 (HOMO)
       165        0.0417           -0.1251238              -3.4048 (LUMO)
       166                         -0.1013349              -2.7575
       167                         -0.0911210              -2.4795
       168                         -0.0880023              -2.3947
       169                         -0.0869029              -2.3647
       170                         -0.0711299              -1.9355
       171                         -0.0630324              -1.7152
       172                         -0.0602694              -1.6400
       173                         -0.0556278              -1.5137
       174                         -0.0240243              -0.6537
       175                         -0.0185439              -0.5046
       ...                                ...                  ...
       296                          0.8384273              22.8148
      -------------------------------------------------------------
                  HL-Gap            0.0073154 Eh            0.1991 eV
             Fermi-level           -0.1287815 Eh           -3.5043 eV

     #   Z          covCN         q      C6AA      α(0)
     1   7 N        2.686    -0.192    25.167     7.451
     2   6 C        3.818     0.040    19.893     6.348
     3   6 C        2.752     0.289    22.110     7.700
     4   8 O        0.857    -0.448    22.659     6.382
     5   7 N        2.693    -0.183    24.957     7.420
     6   6 C        3.776     0.017    20.321     6.423
     7   6 C        2.745     0.267    22.492     7.765
     8   6 C        3.787     0.019    20.266     6.412
     9   8 O        0.857    -0.433    22.359     6.340
    10   7 N        2.697    -0.163    24.529     7.356
    11   6 C        3.774    -0.054    21.568     6.617
    12   6 C        2.766     0.281    22.244     7.724
    13   6 C        3.806    -0.092    22.242     6.714
    14   6 C        3.878     0.030    20.015     6.361
    15   8 O        0.857    -0.471    23.148     6.451
    16   6 C        2.690     0.354    20.990     7.498
    17   7 N        2.626    -0.263    26.827     7.692
    18   6 C        3.804    -0.084    22.099     6.693
    19   8 O        0.855    -0.612    26.406     6.890
    20   8 O        0.858    -0.579    25.615     6.786
    21   6 C        2.817     0.271    22.434     7.760
    22   6 C        2.690     0.347    21.107     7.519
    23   6 C        3.777     0.014    20.360     6.429
    24   8 O        0.858    -0.498    23.739     6.532
    25   8 O        0.855    -0.519    24.213     6.597
    26   8 O        0.874    -0.574    25.470     6.767
    27   7 N        2.687    -0.196    25.265     7.465
    28   6 C        3.812    -0.065    21.739     6.637
    29   6 C        2.752     0.265    22.532     7.773
    30   6 C        3.810    -0.056    21.565     6.610
    31   6 C        3.792     0.023    20.193     6.400
    32   8 O        0.857    -0.422    22.135     6.308
    33   6 C        3.823    -0.076    21.929     6.664
    34   7 N        2.684    -0.171    24.694     7.380
    35   6 C        3.845    -0.060    21.629     6.615
    36   6 C        3.729     0.026    20.235     6.422
    37   6 C        2.739     0.269    22.456     7.759
    38   6 C        3.804    -0.006    20.683     6.474
    39   7 N        2.630    -0.343    28.832     7.975
    40   6 C        3.778     0.014    20.371     6.430
    41   8 O        0.858    -0.470    23.134     6.449
    42  16 S        1.982    -0.213   150.155    20.624
    43   7 N        2.685    -0.209    25.548     7.507
    44   6 C        3.842    -0.025    20.981     6.516
    45   6 C        3.709    -0.054    21.693     6.657
    46   6 C        2.756     0.255    22.714     7.804
    47   6 C        3.742    -0.103    22.545     6.774
    48   6 C        3.785    -0.054    21.552     6.613
    49   8 O        0.857    -0.420    22.075     6.299
    50   6 C        3.738    -0.103    22.551     6.776
    51   6 C        3.792    -0.064    21.740     6.640
    52   6 C        3.799    -0.076    21.962     6.673
    53   6 C        3.721     0.006    20.583     6.479
    54   7 N        2.685    -0.252    26.553     7.653
    55   6 C        2.730     0.233    23.116     7.871
    56   7 N        1.781    -0.437    32.397     8.429
    57   7 N        2.644    -0.300    27.720     7.819
    58   6 C        3.750    -0.128    23.013     6.842
    59   1 H        0.861     0.187     1.174     1.697
    60   1 H        0.926     0.055     2.258     2.350
    61   1 H        0.859     0.196     1.127     1.663
    62   1 H        0.924     0.068     2.107     2.270
    63   1 H        0.923     0.041     2.430     2.438
    64   1 H        0.857     0.200     1.104     1.646
    65   1 H        0.899     0.054     2.274     2.359
    66   1 H        0.926     0.051     2.308     2.376
    67   1 H        0.929     0.034     2.533     2.489
    68   1 H        0.928     0.012     2.864     2.646
    69   1 H        0.922     0.059     2.211     2.326
    70   1 H        0.830     0.271     0.810     1.412
    71   1 H        0.927     0.044     2.398     2.421
    72   1 H        0.921     0.025     2.656     2.549
    73   1 H        0.916     0.034     2.526     2.486
    74   1 H        0.858     0.207     1.073     1.623
    75   1 H        0.920     0.035     2.516     2.481
    76   1 H        0.922     0.064     2.150     2.293
    77   1 H        0.928     0.049     2.327     2.386
    78   1 H        0.926     0.026     2.638     2.540
    79   1 H        0.928     0.055     2.262     2.352
    80   1 H        0.928     0.065     2.141     2.288
    81   1 H        0.928     0.030     2.583     2.513
    82   1 H        0.857     0.197     1.124     1.661
    83   1 H        0.912     0.057     2.233     2.337
    84   1 H        0.923     0.068     2.113     2.273
    85   1 H        0.919     0.041     2.440     2.443
    86   1 H        0.925    -0.012     3.266     2.826
    87   1 H        0.928     0.053     2.278     2.360
    88   1 H        0.928     0.052     2.295     2.369
    89   1 H        0.859     0.144     1.446     1.884
    90   1 H        0.862     0.136     1.496     1.916
    91   1 H        0.919     0.054     2.273     2.358
    92   1 H        0.859     0.175     1.244     1.748
    93   1 H        0.924     0.065     2.142     2.289
    94   1 H        0.902     0.054     2.277     2.361
    95   1 H        0.929     0.061     2.189     2.313
    96   1 H        0.922     0.039     2.461     2.453
    97   1 H        0.913     0.020     2.733     2.586
    98   1 H        0.929     0.046     2.374     2.409
    99   1 H        0.923     0.024     2.672     2.556
   100   1 H        0.907     0.013     2.845     2.639
   101   1 H        0.926     0.037     2.492     2.468
   102   1 H        0.928     0.035     2.522     2.483
   103   1 H        0.921     0.033     2.542     2.494
   104   1 H        0.911     0.050     2.325     2.385
   105   1 H        0.919     0.071     2.080     2.256
   106   1 H        0.924     0.055     2.264     2.353
   107   1 H        0.923     0.050     2.317     2.381
   108   1 H        0.923     0.044     2.392     2.419
   109   1 H        0.924     0.044     2.393     2.419
   110   1 H        0.922     0.054     2.269     2.356
   111   1 H        0.861     0.160     1.335     1.810
   112   1 H        0.859     0.126     1.580     1.969
   113   1 H        0.861     0.166     1.296     1.784
   114   1 H        0.861     0.170     1.272     1.766
   115   1 H        0.926     0.099     1.790     2.092
   116   1 H        0.927     0.039     2.461     2.453
   117   1 H        0.928     0.064     2.147     2.291

 Mol. C6AA /au·bohr⁶  :     136397.136985
 Mol. C8AA /au·bohr⁸  :    3092053.172183
 Mol. α(0) /au        :        551.524998


Wiberg/Mayer (AO) data.
largest (>0.10) Wiberg bond orders for each atom

 ---------------------------------------------------------------------------
     #   Z sym  total        # sym  WBO       # sym  WBO       # sym  WBO
 ---------------------------------------------------------------------------
     1   7 N    3.417 --     7 C    1.244     2 C    0.966    59 H    0.932
                             9 O    0.194
     2   6 C    3.972 --     3 C    0.980    51 C    0.968     1 N    0.966
                            60 H    0.946
     3   6 C    3.957 --     4 O    1.655     5 N    1.242     2 C    0.980
     4   8 O    1.961 --     3 C    1.655     5 N    0.187
     5   7 N    3.408 --     3 C    1.242     6 C    0.969    61 H    0.925
                             4 O    0.187
     6   6 C    3.972 --    46 C    0.977    58 C    0.970     5 N    0.969
                            62 H    0.949
     7   6 C    3.937 --     9 O    1.678     1 N    1.244     8 C    0.932
     8   6 C    3.956 --    10 N    0.977    11 C    0.958    63 H    0.956
                             7 C    0.932
     9   8 O    2.025 --     7 C    1.678     1 N    0.194
    10   7 N    3.465 --    12 C    1.290     8 C    0.977    64 H    0.918
                            15 O    0.195
    11   6 C    3.976 --    13 C    1.000    66 H    0.973    65 H    0.966
                             8 C    0.958
    12   6 C    3.952 --    15 O    1.638    10 N    1.290    14 C    0.952
    13   6 C    3.961 --    11 C    1.000    67 H    0.984    68 H    0.978
                            16 C    0.893
    14   6 C    3.969 --    18 C    0.961    69 H    0.957    12 C    0.952
                            17 N    0.949
    15   8 O    1.957 --    12 C    1.638    10 N    0.195
    16   6 C    3.943 --    20 O    1.548    19 O    1.481    13 C    0.893
    17   7 N    3.330 --    21 C    1.376    14 C    0.949    70 H    0.662
                            24 O    0.182
    18   6 C    3.987 --    72 H    0.975    71 H    0.969    14 C    0.961
                            22 C    0.956
    19   8 O    1.777 --    16 C    1.481    20 O    0.231
    20   8 O    1.845 --    16 C    1.548    19 O    0.231
    21   6 C    3.950 --    24 O    1.588    17 N    1.376    23 C    0.893
    22   6 C    3.944 --    25 O    1.617    26 O    1.335    18 C    0.956
    23   6 C    3.951 --    27 N    0.980    28 C    0.972    73 H    0.954
                            21 C    0.893
    24   8 O    1.980 --    21 C    1.588    17 N    0.182
    25   8 O    1.915 --    22 C    1.617    26 O    0.203
    26   8 O    1.922 --    22 C    1.335    70 H    0.224    25 O    0.203
    27   7 N    3.430 --    29 C    1.285    23 C    0.980    74 H    0.873
                            32 O    0.198
    28   6 C    3.986 --    30 C    1.014    23 C    0.972    75 H    0.967
                            76 H    0.963
    29   6 C    3.954 --    32 O    1.695    27 N    1.285    31 C    0.904
    30   6 C    3.996 --    28 C    1.014    33 C    1.002    78 H    0.976
                            77 H    0.965
    31   6 C    3.957 --    35 C    1.005    34 N    0.953    79 H    0.950
                            29 C    0.904
    32   8 O    2.026 --    29 C    1.695    27 N    0.198
    33   6 C    3.994 --    30 C    1.002    36 C    0.993    81 H    0.980
                            80 H    0.973
    34   7 N    3.484 --    37 C    1.353    31 C    0.953    82 H    0.888
                            41 O    0.202
    35   6 C    3.986 --    38 C    1.015    31 C    1.005    84 H    0.960
                            83 H    0.952
    36   6 C    3.985 --    39 N    1.027    33 C    0.993    85 H    0.976
                            86 H    0.972
    37   6 C    3.956 --    41 O    1.625    34 N    1.353    40 C    0.888
    38   6 C    3.984 --    35 C    1.015    42 S    0.991    88 H    0.975
                            87 H    0.971
    39   7 N    3.026 --    36 C    1.027    89 H    0.965    90 H    0.964
    40   6 C    3.959 --    43 N    1.014    44 C    0.964    91 H    0.943
                            37 C    0.888
    41   8 O    1.966 --    37 C    1.625    34 N    0.202
    42  16 S    2.065 --    45 C    0.999    38 C    0.991
    43   7 N    3.377 --    46 C    1.140    40 C    1.014    92 H    0.919
                            49 O    0.169
    44   6 C    3.987 --    47 C    1.011    48 C    0.992    93 H    0.966
                            40 C    0.964
    45   6 C    3.971 --    42 S    0.999    96 H    0.986    94 H    0.981
                            95 H    0.981
    46   6 C    3.907 --    49 O    1.708    43 N    1.140     6 C    0.977
    47   6 C    3.993 --    44 C    1.011    98 H    0.985    97 H    0.983
                            99 H    0.979
    48   6 C    3.996 --    50 C    1.020    44 C    0.992   100 H    0.976
                           101 H    0.976
    49   8 O    2.004 --    46 C    1.708    43 N    0.169
    50   6 C    3.993 --    48 C    1.020   102 H    0.991   103 H    0.985
                           104 H    0.976
    51   6 C    3.987 --    52 C    1.004   105 H    0.974   106 H    0.973
                             2 C    0.968
    52   6 C    3.988 --    51 C    1.004    53 C    0.992   108 H    0.976
                           107 H    0.974
    53   6 C    3.973 --    54 N    0.993    52 C    0.992   110 H    0.971
                           109 H    0.964
    54   7 N    3.288 --    55 C    1.112    53 C    0.993   111 H    0.946
                            56 N    0.151
    55   6 C    3.958 --    56 N    1.679    57 N    1.135    54 N    1.112
    56   7 N    2.925 --    55 C    1.679   112 H    0.935    54 N    0.151
                            57 N    0.115
    57   7 N    3.235 --    55 C    1.135   114 H    0.956   113 H    0.954
                            56 N    0.115
    58   6 C    3.978 --   116 H    0.982   117 H    0.981   115 H    0.977
                             6 C    0.970
    59   1 H    0.964 --     1 N    0.932
    60   1 H    0.997 --     2 C    0.946
    61   1 H    0.962 --     5 N    0.925
    62   1 H    0.993 --     6 C    0.949
    63   1 H    0.998 --     8 C    0.956
    64   1 H    0.959 --    10 N    0.918
    65   1 H    0.997 --    11 C    0.966
    66   1 H    0.997 --    11 C    0.973
    67   1 H    0.998 --    13 C    0.984
    68   1 H    1.000 --    13 C    0.978
    69   1 H    0.996 --    14 C    0.957
    70   1 H    0.926 --    17 N    0.662    26 O    0.224
    71   1 H    0.998 --    18 C    0.969
    72   1 H    0.998 --    18 C    0.975
    73   1 H    0.999 --    23 C    0.954
    74   1 H    0.957 --    27 N    0.873
    75   1 H    0.998 --    28 C    0.967
    76   1 H    0.996 --    28 C    0.963
    77   1 H    0.998 --    30 C    0.965
    78   1 H    0.999 --    30 C    0.976
    79   1 H    0.997 --    31 C    0.950
    80   1 H    0.996 --    33 C    0.973
    81   1 H    0.999 --    33 C    0.980
    82   1 H    0.961 --    34 N    0.888
    83   1 H    0.996 --    35 C    0.952
    84   1 H    0.995 --    35 C    0.960
    85   1 H    0.998 --    36 C    0.976
    86   1 H    1.000 --    36 C    0.972
    87   1 H    0.997 --    38 C    0.971
    88   1 H    0.997 --    38 C    0.975
    89   1 H    0.979 --    39 N    0.965
    90   1 H    0.981 --    39 N    0.964
    91   1 H    0.996 --    40 C    0.943
    92   1 H    0.969 --    43 N    0.919
    93   1 H    0.995 --    44 C    0.966
    94   1 H    0.997 --    45 C    0.981
    95   1 H    0.996 --    45 C    0.981
    96   1 H    0.998 --    45 C    0.986
    97   1 H    0.999 --    47 C    0.983
    98   1 H    0.997 --    47 C    0.985
    99   1 H    0.999 --    47 C    0.979
   100   1 H    1.000 --    48 C    0.976
   101   1 H    0.999 --    48 C    0.976
   102   1 H    0.999 --    50 C    0.991
   103   1 H    0.999 --    50 C    0.985
   104   1 H    0.998 --    50 C    0.976
   105   1 H    0.995 --    51 C    0.974
   106   1 H    0.997 --    51 C    0.973
   107   1 H    0.997 --    52 C    0.974
   108   1 H    0.998 --    52 C    0.976
   109   1 H    0.998 --    53 C    0.964
   110   1 H    0.997 --    53 C    0.971
   111   1 H    0.974 --    54 N    0.946
   112   1 H    0.984 --    56 N    0.935
   113   1 H    0.972 --    57 N    0.954
   114   1 H    0.971 --    57 N    0.956
   115   1 H    0.990 --    58 C    0.977
   116   1 H    0.998 --    58 C    0.982
   117   1 H    0.996 --    58 C    0.981
 ---------------------------------------------------------------------------

Topologies differ in total number of bonds
Writing topology from bond orders to xtbtopo.mol

molecular dipole:
                 x           y           z       tot (Debye)
 q only:        2.406      12.999       1.486
   full:        2.448      12.405       1.440      32.347
molecular quadrupole (traceless):
                xx          xy          yy          xz          yz          zz
 q only:       27.481       3.616     -66.441      66.193     -89.484      38.960
  q+dip:       10.544      12.090     -50.981      58.904     -99.892      40.437
   full:       11.152      13.480     -50.303      57.803     -99.994      39.151


           -------------------------------------------------
          | TOTAL ENERGY             -185.528611004612 Eh   |
          | GRADIENT NORM               0.387421732234 Eh/α |
          | HOMO-LUMO GAP               0.199060966480 eV   |
           -------------------------------------------------

------------------------------------------------------------------------
 * finished run on 2026/05/23 at 12:31:38.438     
------------------------------------------------------------------------
 total:
 * wall-time:     0 d,  0 h,  0 min, 32.943 sec
 *  cpu-time:     0 d,  0 h,  0 min, 40.981 sec
 * ratio c/w:     1.244 speedup
 SCF:
 * wall-time:     0 d,  0 h,  0 min, 31.647 sec
 *  cpu-time:     0 d,  0 h,  0 min, 39.585 sec
 * ratio c/w:     1.251 speedup

normal termination of xtb
