      -----------------------------------------------------------      
     |                   =====================                   |     
     |                           x T B                           |     
     |                   =====================                   |     
     |                         S. Grimme                         |     
     |          Mulliken Center for Theoretical Chemistry        |     
     |                    University of Bonn                     |     
      -----------------------------------------------------------      

   * xtb version 6.7.1 (edcfbbe) compiled by 'albert@albert-system' on 2024-07-22

   xtb is free software: you can redistribute it and/or modify it under
   the terms of the GNU Lesser General Public License as published by
   the Free Software Foundation, either version 3 of the License, or
   (at your option) any later version.
   
   xtb is distributed in the hope that it will be useful,
   but WITHOUT ANY WARRANTY; without even the implied warranty of
   MERCHANTABILITY or FITNESS FOR A PARTICULAR PURPOSE.  See the
   GNU Lesser General Public License for more details.
   
   Cite this work as:
   * C. Bannwarth, E. Caldeweyher, S. Ehlert, A. Hansen, P. Pracht,
     J. Seibert, S. Spicher, S. Grimme, WIREs Comput. Mol. Sci., 2020, 11,
     e01493. DOI: 10.1002/wcms.1493
   
   for GFN2-xTB:
   * C. Bannwarth, S. Ehlert and S. Grimme., J. Chem. Theory Comput., 2019,
     15, 1652-1671. DOI: 10.1021/acs.jctc.8b01176
   for GFN1-xTB:
   * S. Grimme, C. Bannwarth, P. Shushkov, J. Chem. Theory Comput., 2017,
     13, 1989-2009. DOI: 10.1021/acs.jctc.7b00118
   for GFN0-xTB:
   * P. Pracht, E. Caldeweyher, S. Ehlert, S. Grimme, ChemRxiv, 2019, preprint.
     DOI: 10.26434/chemrxiv.8326202.v1
   for GFN-FF:
   * S. Spicher and S. Grimme, Angew. Chem. Int. Ed., 2020, 59, 15665-15673.
     DOI: 10.1002/anie.202004239
   
   for ALPB and GBSA implicit solvation:
   * S. Ehlert, M. Stahn, S. Spicher, S. Grimme, J. Chem. Theory Comput.,
     2021, 17, 4250-4261. DOI: 10.1021/acs.jctc.1c00471
   
   for ddCOSMO and CPCM-X implicit solvation:
   * M. Stahn, S. Ehlert, S. Grimme, J. Phys. Chem. A,
     2023, XX, XXXX-XXXX. DOI: 10.1021/acs.jpca.3c04382
   
   for DFT-D4:
   * E. Caldeweyher, C. Bannwarth and S. Grimme, J. Chem. Phys., 2017,
     147, 034112. DOI: 10.1063/1.4993215
   * E. Caldeweyher, S. Ehlert, A. Hansen, H. Neugebauer, S. Spicher,
     C. Bannwarth and S. Grimme, J. Chem. Phys., 2019, 150, 154122.
     DOI: 10.1063/1.5090222
   * E. Caldeweyher, J.-M. Mewes, S. Ehlert and S. Grimme, Phys. Chem. Chem. Phys.
     2020, 22, 8499-8512. DOI: 10.1039/D0CP00502A
   
   for sTDA-xTB:
   * S. Grimme and C. Bannwarth, J. Chem. Phys., 2016, 145, 054103.
     DOI: 10.1063/1.4959605
   
   in the mass-spec context:
   * V. Asgeirsson, C. Bauer and S. Grimme, Chem. Sci., 2017, 8, 4879.
     DOI: 10.1039/c7sc00601b
   * J. Koopman and S. Grimme, ACS Omega 2019, 4, 12, 15120-15133.
     DOI: 10.1021/acsomega.9b02011
   
   for metadynamics refer to:
   * S. Grimme, J. Chem. Theory Comput., 2019, 155, 2847-2862
     DOI: 10.1021/acs.jctc.9b00143
   
   for SPH calculations refer to:
   * S. Spicher and S. Grimme, J. Chem. Theory Comput., 2021, 17, 1701-1714
     DOI: 10.1021/acs.jctc.0c01306
   
   for ONIOM refer to:
   * C. Plett, A. Katbashev, S. Ehlert, S. Grimme, M. Bursch,
     Phys. Chem. Chem. Phys., 2023, 25, 17860-17868. DOI: 10.1039/D3CP02178E
   
   for DIPRO refer to:
   * J. Kohn, N. Gildemeister, S. Grimme, D. Fazzi, A. Hansen,
     J. Chem. Phys., 2023, just accepted.
   
   for PTB refer to:
   * S. Grimme, M. Mueller, A. Hansen, J. Chem. Phys., 2023, 158, 124111.
     DOI: 10.1063/5.0137838
   
   with help from (in alphabetical order)
   P. Atkinson, C. Bannwarth, F. Bohle, G. Brandenburg, E. Caldeweyher
   M. Checinski, S. Dohm, S. Ehlert, S. Ehrlich, I. Gerasimov, C. Hölzer
   A. Katbashev, J. Kohn, J. Koopman, C. Lavigne, S. Lehtola, F. März, M. Müller,
   F. Musil, H. Neugebauer, J. Pisarek, C. Plett, P. Pracht, F. Pultar,
   J. Seibert, P. Shushkov, S. Spicher, M. Stahn, M. Steiner, T. Strunk,
   J. Stückrath, T. Rose, and J. Unsleber
   
 * started run on 2026/05/23 at 12:39:36.483     
   ID    Z sym.   atoms
    1    7 N      1, 5, 10, 17, 27, 34, 39, 43, 54, 56, 57
    2    6 C      2, 3, 6-8, 11-14, 16, 18, 21-23, 28-31, 33, 35-38, 40,
                  44-48, 50-53, 55, 58
    3    8 O      4, 9, 15, 19, 20, 24-26, 32, 41, 49
    4   16 S      42
    5    1 H      59-117

           -------------------------------------------------
          |                Calculation Setup                |
           -------------------------------------------------

          program call               : /home/xchen/software/xtb-6.7.1/xtb-dist/bin/xtb /home/xchen/Test/benchmark/md_sampled/04_7_0231_n2/snap_0060.xyz --charge -2 --gfn 2 --norestart
          coordinate file            : /home/xchen/Test/benchmark/md_sampled/04_7_0231_n2/snap_0060.xyz
          omp threads                :                    48


           -------------------------------------------------
          |                 G F N 2 - x T B                 |
           -------------------------------------------------

        Reference                      10.1021/acs.jctc.8b01176
      * Hamiltonian:
        H0-scaling (s, p, d)           1.850000    2.230000    2.230000
        zeta-weighting                 0.500000
      * Dispersion:
        s8                             2.700000
        a1                             0.520000
        a2                             5.000000
        s9                             5.000000
      * Repulsion:
        kExp                           1.500000    1.000000
        rExp                           1.000000
      * Coulomb:
        alpha                          2.000000
        third order                    shell-resolved
        anisotropic                    true
        a3                             3.000000
        a5                             4.000000
        cn-shift                       1.200000
        cn-exp                         4.000000
        max-rad                        5.000000


          ...................................................
          :                      SETUP                      :
          :.................................................:
          :  # basis functions                 297          :
          :  # atomic orbitals                 296          :
          :  # shells                          176          :
          :  # electrons                       328          :
          :  max. iterations                   250          :
          :  Hamiltonian                  GFN2-xTB          :
          :  restarted?                      false          :
          :  GBSA solvation                  false          :
          :  PC potential                    false          :
          :  electronic temp.          300.0000000     K    :
          :  accuracy                    1.0000000          :
          :  -> integral cutoff          0.2500000E+02      :
          :  -> integral neglect         0.1000000E-07      :
          :  -> SCF convergence          0.1000000E-05 Eh   :
          :  -> wf. convergence          0.1000000E-03 e    :
          :  Broyden damping             0.4000000          :
          :  net charge                         -2          :
          :  unpaired electrons                  0          :
          ...................................................

 iter      E             dE          RMSdq      gap      omega  full diag
   1   -187.0602398 -0.187060E+03  0.415E+00    3.54       0.0  T
   2   -187.5559088 -0.495669E+00  0.216E+00    2.32       1.0  T
   3   -187.5797660 -0.238572E-01  0.115E+00    1.21       1.0  T
   4   -186.5282915  0.105147E+01  0.202E+00    0.16       1.0  T
   5   -187.5867875 -0.105850E+01  0.235E-01    0.75       1.0  T
   6   -187.5888337 -0.204629E-02  0.130E-01    0.74       1.0  T
   7   -187.5888692 -0.354423E-04  0.856E-02    0.82       1.0  T
   8   -187.5889776 -0.108442E-03  0.721E-02    0.82       1.0  T
   9   -187.5890235 -0.458959E-04  0.677E-02    0.78       1.0  T
  10   -187.5890658 -0.422321E-04  0.636E-02    0.74       1.0  T
  11   -187.5891007 -0.349733E-04  0.604E-02    0.71       1.0  T
  12   -187.5891459 -0.451740E-04  0.560E-02    0.67       1.0  T
  13   -187.5891795 -0.336494E-04  0.524E-02    0.63       1.0  T
  14   -187.5893247 -0.145120E-03  0.339E-02    0.45       1.0  T
  15   -187.5894837 -0.159077E-03  0.256E-03    0.25       3.6  T
  16   -187.5894840 -0.259232E-06  0.234E-03    0.25       4.0  T
  17   -187.5894835  0.505341E-06  0.281E-03    0.26       3.3  T
  18   -187.5894806  0.285890E-05  0.448E-03    0.25       2.1  T
  19   -187.5894848 -0.411411E-05  0.144E-03    0.26       6.4  T
  20   -187.5894852 -0.454017E-06  0.168E-04    0.26      55.0  T
  21   -187.5894852 -0.420138E-08  0.947E-05    0.26      97.6  T

   *** convergence criteria satisfied after 21 iterations ***

         #    Occupation            Energy/Eh            Energy/eV
      -------------------------------------------------------------
         1        2.0000           -0.5942090             -16.1692
       ...           ...                  ...                  ...
       158        2.0000           -0.2093195              -5.6959
       159        2.0000           -0.2022675              -5.5040
       160        2.0000           -0.1952664              -5.3135
       161        2.0000           -0.1841429              -5.0108
       162        2.0000           -0.1502515              -4.0886
       163        2.0000           -0.1346507              -3.6640
       164        1.9860           -0.1189875              -3.2378 (HOMO)
       165        0.0140           -0.1095682              -2.9815 (LUMO)
       166                         -0.0974142              -2.6508
       167                         -0.0795577              -2.1649
       168                         -0.0783369              -2.1317
       169                         -0.0728176              -1.9815
       ...                                ...                  ...
       296                          0.9501691              25.8554
      -------------------------------------------------------------
                  HL-Gap            0.0094193 Eh            0.2563 eV
             Fermi-level           -0.1142778 Eh           -3.1097 eV

 SCC (total)                   0 d,  0 h,  0 min, 32.302 sec
 SCC setup                      ...        0 min,  0.030 sec (  0.092%)
 Dispersion                     ...        0 min,  0.194 sec (  0.600%)
 classical contributions        ...        0 min,  0.008 sec (  0.025%)
 integral evaluation            ...        0 min,  0.284 sec (  0.880%)
 iterations                     ...        0 min, 30.693 sec ( 95.018%)
 molecular gradient             ...        0 min,  1.068 sec (  3.307%)
 printout                       ...        0 min,  0.025 sec (  0.076%)

         :::::::::::::::::::::::::::::::::::::::::::::::::::::
         ::                     SUMMARY                     ::
         :::::::::::::::::::::::::::::::::::::::::::::::::::::
         :: total energy            -185.522952589962 Eh    ::
         :: gradient norm              0.361494731144 Eh/a0 ::
         :: HOMO-LUMO gap              0.256312059062 eV    ::
         ::.................................................::
         :: SCC energy              -187.583225932094 Eh    ::
         :: -> isotropic ES            0.726384934071 Eh    ::
         :: -> anisotropic ES          0.011770919121 Eh    ::
         :: -> anisotropic XC          0.059686809140 Eh    ::
         :: -> dispersion             -0.140482548921 Eh    ::
         :: repulsion energy           2.060273342132 Eh    ::
         :: add. restraining           0.000000000000 Eh    ::
         :: total charge              -1.999999999998 e     ::
         :::::::::::::::::::::::::::::::::::::::::::::::::::::

           -------------------------------------------------
          |                Property Printout                |
           -------------------------------------------------

    * Orbital Energies and Occupations

         #    Occupation            Energy/Eh            Energy/eV
      -------------------------------------------------------------
         1        2.0000           -0.5942090             -16.1692
       ...           ...                  ...                  ...
       152        2.0000           -0.2351154              -6.3978
       153        2.0000           -0.2318353              -6.3086
       154        2.0000           -0.2256805              -6.1411
       155        2.0000           -0.2160311              -5.8785
       156        2.0000           -0.2144938              -5.8367
       157        2.0000           -0.2100715              -5.7163
       158        2.0000           -0.2093195              -5.6959
       159        2.0000           -0.2022675              -5.5040
       160        2.0000           -0.1952664              -5.3135
       161        2.0000           -0.1841429              -5.0108
       162        2.0000           -0.1502515              -4.0886
       163        2.0000           -0.1346507              -3.6640
       164        1.9860           -0.1189875              -3.2378 (HOMO)
       165        0.0140           -0.1095682              -2.9815 (LUMO)
       166                         -0.0974142              -2.6508
       167                         -0.0795577              -2.1649
       168                         -0.0783369              -2.1317
       169                         -0.0728176              -1.9815
       170                         -0.0726572              -1.9771
       171                         -0.0605713              -1.6482
       172                         -0.0455244              -1.2388
       173                         -0.0265585              -0.7227
       174                         -0.0154808              -0.4213
       175                         -0.0059763              -0.1626
       ...                                ...                  ...
       296                          0.9501691              25.8554
      -------------------------------------------------------------
                  HL-Gap            0.0094193 Eh            0.2563 eV
             Fermi-level           -0.1142778 Eh           -3.1097 eV

     #   Z          covCN         q      C6AA      α(0)
     1   7 N        2.687    -0.188    25.067     7.436
     2   6 C        3.789     0.025    20.170     6.396
     3   6 C        2.765     0.288    22.128     7.704
     4   8 O        0.857    -0.431    22.302     6.332
     5   7 N        2.721    -0.173    24.734     7.386
     6   6 C        3.807     0.040    19.899     6.350
     7   6 C        2.739     0.279    22.278     7.728
     8   6 C        3.776     0.033    20.050     6.380
     9   8 O        0.857    -0.417    22.023     6.292
    10   7 N        2.676    -0.199    25.313     7.472
    11   6 C        3.795    -0.064    21.736     6.639
    12   6 C        2.753     0.268    22.469     7.762
    13   6 C        3.781    -0.078    22.003     6.682
    14   6 C        3.854     0.055    19.626     6.301
    15   8 O        0.859    -0.476    23.250     6.465
    16   6 C        2.696     0.375    20.654     7.438
    17   7 N        2.555    -0.349    29.027     8.001
    18   6 C        3.804    -0.103    22.455     6.746
    19   8 O        0.857    -0.613    26.452     6.896
    20   8 O        0.861    -0.605    26.251     6.869
    21   6 C        2.822     0.266    22.520     7.776
    22   6 C        2.685     0.353    21.010     7.501
    23   6 C        3.774     0.013    20.390     6.434
    24   8 O        0.858    -0.576    25.527     6.774
    25   8 O        0.856    -0.465    23.023     6.433
    26   8 O        1.493    -0.510    23.256     6.503
    27   7 N        2.694    -0.195    25.228     7.460
    28   6 C        3.779    -0.064    21.745     6.643
    29   6 C        2.754     0.272    22.395     7.749
    30   6 C        3.796    -0.068    21.803     6.649
    31   6 C        3.817     0.017    20.280     6.409
    32   8 O        0.861    -0.434    22.378     6.343
    33   6 C        3.780    -0.050    21.493     6.605
    34   7 N        2.690    -0.173    24.752     7.389
    35   6 C        3.861    -0.061    21.625     6.613
    36   6 C        3.733     0.030    20.150     6.407
    37   6 C        2.756     0.278    22.288     7.731
    38   6 C        3.796    -0.008    20.725     6.482
    39   7 N        2.618    -0.345    28.898     7.984
    40   6 C        3.804     0.015    20.329     6.419
    41   8 O        0.860    -0.429    22.263     6.326
    42  16 S        2.004    -0.215   150.212    20.628
    43   7 N        2.685    -0.210    25.569     7.510
    44   6 C        3.865    -0.023    20.943     6.508
    45   6 C        3.740    -0.046    21.480     6.613
    46   6 C        2.790     0.265    22.541     7.777
    47   6 C        3.772    -0.115    22.734     6.794
    48   6 C        3.796    -0.059    21.649     6.626
    49   8 O        0.861    -0.424    22.159     6.311
    50   6 C        3.739    -0.124    22.969     6.838
    51   6 C        3.799    -0.056    21.592     6.616
    52   6 C        3.827    -0.065    21.729     6.633
    53   6 C        3.734     0.032    20.128     6.403
    54   7 N        2.721    -0.226    25.927     7.563
    55   6 C        2.735     0.222    23.326     7.907
    56   7 N        1.792    -0.457    33.027     8.512
    57   7 N        2.646    -0.319    28.219     7.890
    58   6 C        3.702    -0.105    22.667     6.807
    59   1 H        0.860     0.170     1.275     1.769
    60   1 H        0.926     0.055     2.257     2.349
    61   1 H        0.860     0.222     0.999     1.566
    62   1 H        0.924     0.058     2.222     2.331
    63   1 H        0.921     0.041     2.438     2.442
    64   1 H        0.855     0.197     1.120     1.658
    65   1 H        0.913     0.053     2.283     2.363
    66   1 H        0.922     0.057     2.239     2.340
    67   1 H        0.897    -0.006     3.167     2.785
    68   1 H        0.927     0.007     2.936     2.679
    69   1 H        0.926     0.054     2.269     2.356
    70   1 H        1.362     0.314     0.664     1.272
    71   1 H        0.924     0.057     2.233     2.337
    72   1 H        0.927     0.051     2.305     2.374
    73   1 H        0.929     0.059     2.206     2.323
    74   1 H        0.859     0.187     1.177     1.700
    75   1 H        0.924     0.033     2.539     2.492
    76   1 H        0.926     0.080     1.981     2.201
    77   1 H        0.922     0.060     2.203     2.321
    78   1 H        0.927     0.043     2.406     2.426
    79   1 H        0.928     0.078     2.003     2.213
    80   1 H        0.921     0.051     2.312     2.378
    81   1 H        0.911     0.000     3.055     2.734
    82   1 H        0.859     0.177     1.231     1.738
    83   1 H        0.923     0.037     2.485     2.465
    84   1 H        0.926     0.076     2.024     2.225
    85   1 H        0.924     0.010     2.888     2.658
    86   1 H        0.924     0.009     2.900     2.663
    87   1 H        0.932     0.065     2.141     2.288
    88   1 H        0.919     0.029     2.600     2.522
    89   1 H        0.851     0.163     1.319     1.800
    90   1 H        0.860     0.123     1.602     1.983
    91   1 H        0.926     0.076     2.023     2.224
    92   1 H        0.861     0.168     1.283     1.774
    93   1 H        0.928     0.066     2.131     2.283
    94   1 H        0.919     0.057     2.241     2.341
    95   1 H        0.926     0.052     2.294     2.369
    96   1 H        0.924     0.039     2.461     2.453
    97   1 H        0.927     0.033     2.547     2.496
    98   1 H        0.929     0.042     2.426     2.436
    99   1 H        0.926     0.023     2.684     2.562
   100   1 H        0.927     0.041     2.430     2.437
   101   1 H        0.919     0.027     2.636     2.539
   102   1 H        0.928     0.037     2.492     2.469
   103   1 H        0.927     0.041     2.436     2.440
   104   1 H        0.919     0.041     2.432     2.439
   105   1 H        0.919     0.055     2.259     2.351
   106   1 H        0.925     0.047     2.352     2.398
   107   1 H        0.918     0.042     2.418     2.432
   108   1 H        0.926     0.050     2.318     2.381
   109   1 H        0.927     0.027     2.633     2.537
   110   1 H        0.917     0.018     2.762     2.599
   111   1 H        0.861     0.175     1.243     1.747
   112   1 H        0.863     0.132     1.533     1.939
   113   1 H        0.861     0.172     1.261     1.759
   114   1 H        0.860     0.176     1.238     1.743
   115   1 H        0.913     0.086     1.920     2.168
   116   1 H        0.920     0.018     2.757     2.597
   117   1 H        0.897     0.042     2.424     2.436

 Mol. C6AA /au·bohr⁶  :     136561.675304
 Mol. C8AA /au·bohr⁸  :    3093906.185037
 Mol. α(0) /au        :        551.940827


Wiberg/Mayer (AO) data.
largest (>0.10) Wiberg bond orders for each atom

 ---------------------------------------------------------------------------
     #   Z sym  total        # sym  WBO       # sym  WBO       # sym  WBO
 ---------------------------------------------------------------------------
     1   7 N    3.409 --     7 C    1.222     2 C    0.980    59 H    0.939
                             9 O    0.189
     2   6 C    3.972 --    51 C    0.992     1 N    0.980    60 H    0.956
                             3 C    0.913
     3   6 C    3.948 --     4 O    1.698     5 N    1.247     2 C    0.913
     4   8 O    1.999 --     3 C    1.698     5 N    0.170
     5   7 N    3.404 --     3 C    1.247     6 C    1.014    61 H    0.897
                             4 O    0.170
     6   6 C    3.981 --     5 N    1.014    46 C    0.980    58 C    0.954
                            62 H    0.937
     7   6 C    3.931 --     9 O    1.702     1 N    1.222     8 C    0.912
     8   6 C    3.962 --    11 C    0.991    10 N    0.967    63 H    0.961
                             7 C    0.912
     9   8 O    2.052 --     7 C    1.702     1 N    0.189
    10   7 N    3.387 --    12 C    1.222     8 C    0.967    64 H    0.911
                            15 O    0.171
    11   6 C    3.980 --     8 C    0.991    13 C    0.985    66 H    0.969
                            65 H    0.952
    12   6 C    3.940 --    15 O    1.658    10 N    1.222    14 C    0.965
    13   6 C    3.961 --    11 C    0.985    68 H    0.974    67 H    0.973
                            16 C    0.914
    14   6 C    3.983 --    17 N    1.010    12 C    0.965    18 C    0.947
                            69 H    0.946
    15   8 O    1.947 --    12 C    1.658    10 N    0.171
    16   6 C    3.947 --    20 O    1.513    19 O    1.503    13 C    0.914
    17   7 N    3.229 --    21 C    1.411    14 C    1.010    70 H    0.400
                            24 O    0.212
    18   6 C    3.988 --    72 H    0.977    22 C    0.962    71 H    0.948
                            14 C    0.947
    19   8 O    1.805 --    16 C    1.503    20 O    0.232
    20   8 O    1.821 --    16 C    1.513    19 O    0.232
    21   6 C    3.964 --    24 O    1.504    17 N    1.411    23 C    0.965
    22   6 C    3.933 --    25 O    1.696    26 O    1.239    18 C    0.962
    23   6 C    3.943 --    73 H    0.965    21 C    0.965    27 N    0.954
                            28 C    0.936
    24   8 O    1.853 --    21 C    1.504    17 N    0.212
    25   8 O    1.987 --    22 C    1.696    26 O    0.189
    26   8 O    2.082 --    22 C    1.239    70 H    0.478    25 O    0.189
    27   7 N    3.476 --    29 C    1.299    23 C    0.954    74 H    0.920
                            32 O    0.220
    28   6 C    3.982 --    30 C    1.011    75 H    0.976    76 H    0.961
                            23 C    0.936
    29   6 C    3.958 --    32 O    1.672    27 N    1.299    31 C    0.921
    30   6 C    3.989 --    28 C    1.011    33 C    0.996    78 H    0.977
                            77 H    0.963
    31   6 C    3.957 --    35 C    0.979    34 N    0.971    79 H    0.945
                            29 C    0.921
    32   8 O    2.016 --    29 C    1.672    27 N    0.220
    33   6 C    3.992 --    36 C    1.009    30 C    0.996    80 H    0.976
                            81 H    0.976
    34   7 N    3.455 --    37 C    1.271    31 C    0.971    82 H    0.926
                            41 O    0.195
    35   6 C    3.991 --    38 C    1.014    31 C    0.979    84 H    0.968
                            83 H    0.967
    36   6 C    3.989 --    39 N    1.013    33 C    1.009    86 H    0.977
                            85 H    0.975
    37   6 C    3.952 --    41 O    1.690    34 N    1.271    40 C    0.909
    38   6 C    3.981 --    35 C    1.014    42 S    0.989    88 H    0.974
                            87 H    0.968
    39   7 N    2.992 --    36 C    1.013    90 H    0.970    89 H    0.945
    40   6 C    3.963 --    44 C    0.994    43 N    0.969    91 H    0.953
                            37 C    0.909
    41   8 O    2.014 --    37 C    1.690    34 N    0.195
    42  16 S    2.095 --    45 C    1.020    38 C    0.989
    43   7 N    3.390 --    46 C    1.205    40 C    0.969    92 H    0.938
                            49 O    0.190
    44   6 C    3.991 --    48 C    1.012    40 C    0.994    47 C    0.988
                            93 H    0.954
    45   6 C    3.971 --    42 S    1.020    96 H    0.977    94 H    0.977
                            95 H    0.967
    46   6 C    3.940 --    49 O    1.687    43 N    1.205     6 C    0.980
    47   6 C    3.987 --    44 C    0.988    98 H    0.987    99 H    0.984
                            97 H    0.982
    48   6 C    3.991 --    44 C    1.012    50 C    1.000   100 H    0.975
                           101 H    0.967
    49   8 O    2.017 --    46 C    1.687    43 N    0.190
    50   6 C    3.986 --    48 C    1.000   103 H    0.991   102 H    0.987
                           104 H    0.974
    51   6 C    3.988 --    52 C    1.002     2 C    0.992   105 H    0.969
                           106 H    0.952
    52   6 C    3.991 --    51 C    1.002    53 C    1.000   108 H    0.976
                           107 H    0.973
    53   6 C    3.978 --    54 N    1.022    52 C    1.000   109 H    0.963
                           110 H    0.952
    54   7 N    3.353 --    55 C    1.143    53 C    1.022   111 H    0.923
                            56 N    0.163
    55   6 C    3.963 --    56 N    1.668    54 N    1.143    57 N    1.113
    56   7 N    2.913 --    55 C    1.668   112 H    0.947    54 N    0.163
    57   7 N    3.153 --    55 C    1.113   114 H    0.951   113 H    0.943
    58   6 C    3.981 --   116 H    0.984   117 H    0.984   115 H    0.978
                             6 C    0.954
    59   1 H    0.971 --     1 N    0.939
    60   1 H    0.997 --     2 C    0.956
    61   1 H    0.951 --     5 N    0.897
    62   1 H    0.996 --     6 C    0.937
    63   1 H    0.998 --     8 C    0.961
    64   1 H    0.961 --    10 N    0.911
    65   1 H    0.997 --    11 C    0.952
    66   1 H    0.996 --    11 C    0.969
    67   1 H    1.000 --    13 C    0.973
    68   1 H    1.000 --    13 C    0.974
    69   1 H    0.997 --    14 C    0.946
    70   1 H    0.901 --    26 O    0.478    17 N    0.400
    71   1 H    0.997 --    18 C    0.948
    72   1 H    0.997 --    18 C    0.977
    73   1 H    0.996 --    23 C    0.965
    74   1 H    0.965 --    27 N    0.920
    75   1 H    0.998 --    28 C    0.976
    76   1 H    0.994 --    28 C    0.961
    77   1 H    0.996 --    30 C    0.963
    78   1 H    0.998 --    30 C    0.977
    79   1 H    0.994 --    31 C    0.945
    80   1 H    0.997 --    33 C    0.976
    81   1 H    1.000 --    33 C    0.976
    82   1 H    0.968 --    34 N    0.926
    83   1 H    0.998 --    35 C    0.967
    84   1 H    0.994 --    35 C    0.968
    85   1 H    0.999 --    36 C    0.975
    86   1 H    1.000 --    36 C    0.977
    87   1 H    0.996 --    38 C    0.968
    88   1 H    0.999 --    38 C    0.974
    89   1 H    0.974 --    39 N    0.945
    90   1 H    0.985 --    39 N    0.970
    91   1 H    0.994 --    40 C    0.953
    92   1 H    0.972 --    43 N    0.938
    93   1 H    0.995 --    44 C    0.954
    94   1 H    0.997 --    45 C    0.977
    95   1 H    0.997 --    45 C    0.967
    96   1 H    0.998 --    45 C    0.977
    97   1 H    0.999 --    47 C    0.982
    98   1 H    0.998 --    47 C    0.987
    99   1 H    0.999 --    47 C    0.984
   100   1 H    0.998 --    48 C    0.975
   101   1 H    0.999 --    48 C    0.967
   102   1 H    0.999 --    50 C    0.987
   103   1 H    0.998 --    50 C    0.991
   104   1 H    0.998 --    50 C    0.974
   105   1 H    0.997 --    51 C    0.969
   106   1 H    0.997 --    51 C    0.952
   107   1 H    0.998 --    52 C    0.973
   108   1 H    0.997 --    52 C    0.976
   109   1 H    0.999 --    53 C    0.963
   110   1 H    0.999 --    53 C    0.952
   111   1 H    0.969 --    54 N    0.923
   112   1 H    0.983 --    56 N    0.947
   113   1 H    0.970 --    57 N    0.943
   114   1 H    0.969 --    57 N    0.951
   115   1 H    0.992 --    58 C    0.978
   116   1 H    0.999 --    58 C    0.984
   117   1 H    0.998 --    58 C    0.984
 ---------------------------------------------------------------------------

Topologies differ in total number of bonds
Writing topology from bond orders to xtbtopo.mol

molecular dipole:
                 x           y           z       tot (Debye)
 q only:        1.549      13.974       2.221
   full:        2.237      14.080       1.625      36.472
molecular quadrupole (traceless):
                xx          xy          yy          xz          yz          zz
 q only:       12.836       8.629     -32.755      53.087     -99.556      19.919
  q+dip:       -4.458      15.933     -21.150      53.989    -100.008      25.608
   full:       -3.865      17.040     -20.582      52.862    -101.225      24.448


           -------------------------------------------------
          | TOTAL ENERGY             -185.522952589962 Eh   |
          | GRADIENT NORM               0.361494731144 Eh/α |
          | HOMO-LUMO GAP               0.256312059062 eV   |
           -------------------------------------------------

------------------------------------------------------------------------
 * finished run on 2026/05/23 at 12:40:09.925     
------------------------------------------------------------------------
 total:
 * wall-time:     0 d,  0 h,  0 min, 33.441 sec
 *  cpu-time:     0 d,  0 h,  0 min, 44.833 sec
 * ratio c/w:     1.341 speedup
 SCF:
 * wall-time:     0 d,  0 h,  0 min, 32.304 sec
 *  cpu-time:     0 d,  0 h,  0 min, 43.812 sec
 * ratio c/w:     1.356 speedup

normal termination of xtb
