      -----------------------------------------------------------      
     |                   =====================                   |     
     |                           x T B                           |     
     |                   =====================                   |     
     |                         S. Grimme                         |     
     |          Mulliken Center for Theoretical Chemistry        |     
     |                    University of Bonn                     |     
      -----------------------------------------------------------      

   * xtb version 6.7.1 (26dd68d) compiled by 'froitzheim@fs7' on 2026-05-14

   xtb is free software: you can redistribute it and/or modify it under
   the terms of the GNU Lesser General Public License as published by
   the Free Software Foundation, either version 3 of the License, or
   (at your option) any later version.
   
   xtb is distributed in the hope that it will be useful,
   but WITHOUT ANY WARRANTY; without even the implied warranty of
   MERCHANTABILITY or FITNESS FOR A PARTICULAR PURPOSE.  See the
   GNU Lesser General Public License for more details.
   
   Cite this work as:
   * C. Bannwarth, E. Caldeweyher, S. Ehlert, A. Hansen, P. Pracht,
     J. Seibert, S. Spicher, S. Grimme, WIREs Comput. Mol. Sci., 2020, 11,
     e01493. DOI: 10.1002/wcms.1493
   
   for g-xTB:
   * T. Froitzheim, M. Müller, A. Hansen, S. Grimme, ChemRxiv, 2025, preprint.
     DOI: 10.26434/chemrxiv-2025-bjxv
   for GFN2-xTB:
   * C. Bannwarth, S. Ehlert and S. Grimme., J. Chem. Theory Comput., 2019,
     15, 1652-1671. DOI: 10.1021/acs.jctc.8b01176
   for GFN1-xTB:
   * S. Grimme, C. Bannwarth, P. Shushkov, J. Chem. Theory Comput., 2017,
     13, 1989-2009. DOI: 10.1021/acs.jctc.7b00118
   for GFN0-xTB:
   * P. Pracht, E. Caldeweyher, S. Ehlert, S. Grimme, ChemRxiv, 2019, preprint.
     DOI: 10.26434/chemrxiv.8326202.v1
   for GFN-FF:
   * S. Spicher and S. Grimme, Angew. Chem. Int. Ed., 2020, 59, 15665-15673.
     DOI: 10.1002/anie.202004239
   
   for ALPB and GBSA implicit solvation:
   * S. Ehlert, M. Stahn, S. Spicher, S. Grimme, J. Chem. Theory Comput.,
     2021, 17, 4250-4261. DOI: 10.1021/acs.jctc.1c00471
   
   for ddCOSMO and CPCM-X implicit solvation:
   * M. Stahn, S. Ehlert, S. Grimme, J. Phys. Chem. A,
     2023, XX, XXXX-XXXX. DOI: 10.1021/acs.jpca.3c04382
   
   for DFT-D4:
   * E. Caldeweyher, C. Bannwarth and S. Grimme, J. Chem. Phys., 2017,
     147, 034112. DOI: 10.1063/1.4993215
   * E. Caldeweyher, S. Ehlert, A. Hansen, H. Neugebauer, S. Spicher,
     C. Bannwarth and S. Grimme, J. Chem. Phys., 2019, 150, 154122.
     DOI: 10.1063/1.5090222
   * E. Caldeweyher, J.-M. Mewes, S. Ehlert and S. Grimme, Phys. Chem. Chem. Phys.
     2020, 22, 8499-8512. DOI: 10.1039/D0CP00502A
   
   for sTDA-xTB:
   * S. Grimme and C. Bannwarth, J. Chem. Phys., 2016, 145, 054103.
     DOI: 10.1063/1.4959605
   
   in the mass-spec context:
   * V. Asgeirsson, C. Bauer and S. Grimme, Chem. Sci., 2017, 8, 4879.
     DOI: 10.1039/c7sc00601b
   * J. Koopman and S. Grimme, ACS Omega 2019, 4, 12, 15120-15133.
     DOI: 10.1021/acsomega.9b02011
   
   for metadynamics refer to:
   * S. Grimme, J. Chem. Theory Comput., 2019, 155, 2847-2862
     DOI: 10.1021/acs.jctc.9b00143
   
   for SPH calculations refer to:
   * S. Spicher and S. Grimme, J. Chem. Theory Comput., 2021, 17, 1701-1714
     DOI: 10.1021/acs.jctc.0c01306
   
   for ONIOM refer to:
   * C. Plett, A. Katbashev, S. Ehlert, S. Grimme, M. Bursch,
     Phys. Chem. Chem. Phys., 2023, 25, 17860-17868. DOI: 10.1039/D3CP02178E
   
   for DIPRO refer to:
   * J. Kohn, N. Gildemeister, S. Grimme, D. Fazzi, A. Hansen,
     J. Chem. Phys. 159, 144106 (2023). DOI: 10.1063/5.0167484
   
   for PTB refer to:
   * S. Grimme, M. Mueller, A. Hansen, J. Chem. Phys., 2023, 158, 124111.
     DOI: 10.1063/5.0137838
   
   with help from (in alphabetical order)
   P. Atkinson, C. Bannwarth, F. Bohle, G. Brandenburg, E. Caldeweyher,
   M. Checinski, S. Dohm, S. Ehlert, S. Ehrlich, M. Friede, T. Froitzheim,
   I. Gerasimov, C. Hölzer, A. Katbashev, J. Kohn, J. Koopman, C. Lavigne,
   S. Lehtola, F. März, M. Müller, F. Musil, H. Neugebauer, J. Pisarek,
   C. Plett, P. Pracht, F. Pultar, J. Seibert, P. Shushkov, S. Spicher,
   M. Stahn, M. Steiner, T. Strunk, J. Stückrath, T. Rose, and J. Unsleber
   
 * started run on 2026/05/23 at 12:35:23.847     
   ID    Z sym.   atoms
    1    7 N      1, 5, 10, 17, 27, 34, 39, 43, 54, 56, 57
    2    6 C      2, 3, 6-8, 11-14, 16, 18, 21-23, 28-31, 33, 35-38, 40,
                  44-48, 50-53, 55, 58
    3    8 O      4, 9, 15, 19, 20, 24-26, 32, 41, 49
    4   16 S      42
    5    1 H      59-117

           -------------------------------------------------
          |                Calculation Setup                |
           -------------------------------------------------

          program call               : /home/xchen/software/xtb-6.7.1-gxtb/bin/xtb /home/xchen/Test/benchmark/md_sampled/04_7_0231_n2/snap_0044.xyz --charge -2 --gxtb --norestart
          coordinate file            : /home/xchen/Test/benchmark/md_sampled/04_7_0231_n2/snap_0044.xyz
          omp threads                :                    48

core increment energy         -2.9312527735450E+03 Eh
dispersion energy              2.5813924457113E-02 Eh
molecular charge              -2.0000000000000E+00 e
number of electrons            3.2799999999710E+02 e
number of unpaired electrons   0.0000000000000E+00 e
wavefunction                   restricted
integral cutoff                2.6907767250513E+01 bohr
energy convergence             1.0000000000000E-06 Eh
density convergence            2.0000000000000E-05 e

------------------------------------------------------------
  cycle        total energy    energy error   density error
------------------------------------------------------------
      1     -3195.872349046  -2.6464539E+02   0.0000000E+00
      2     -3196.362750884  -4.9040184E-01   2.0510734E-02
      3     -3196.676998161  -3.1424728E-01   1.6112535E-02
      4     -3197.342001375  -6.6500321E-01   1.2714373E-02
      5     -3197.351971813  -9.9704376E-03   8.6349848E-04
      6     -3197.352754869  -7.8305577E-04   1.6154684E-04
      7     -3197.352822750  -6.7881641E-05   4.9512221E-05
      8     -3197.352827401  -4.6506643E-06   1.4955754E-05
      9     -3197.352827936  -5.3466448E-07   2.5465381E-06
------------------------------------------------------------

electronic energy             -2.6612586831519E+02 Eh
total energy                  -3.1973528279357E+03 Eh

Post processing:
 | Mayer-Wiberg bond orders
 | Molecular Multipole Moments

 total:                                  53.065 sec
 - increment                              0.000 sec (  0%)
 - repulsion                              0.023 sec (  0%)
 - dispersion                             0.824 sec (  1%)
 - coulomb                                0.282 sec (  0%)
 - exchange                               0.010 sec (  0%)
 - hamiltonian                           36.892 sec ( 69%)
 - acp                                    0.474 sec (  0%)
 - spin polarization                      0.000 sec (  0%)
 - post processing                        0.307 sec (  0%)
 - scc                                   12.964 sec ( 24%)
 - coulomb gradient                       0.120 sec (  0%)
 - dispersion gradient                    0.052 sec (  0%)
 - exchange gradient                      0.132 sec (  0%)
 - repulsion gradient                     0.010 sec (  0%)
 - acp gradient                           0.487 sec (  0%)
 - hamiltonian gradient                   0.775 sec (  1%)
 - gradient                               1.577 sec (  2%)

         :::::::::::::::::::::::::::::::::::::::::::::::::::::
         ::                     SUMMARY                     ::
         :::::::::::::::::::::::::::::::::::::::::::::::::::::
         :: total energy           -3197.352827935731 Eh    ::
         :: gradient norm              0.406634547098 Eh/a0 ::
         :: HOMO-LUMO gap              6.228285053651 eV    ::
         ::.................................................::
         :: add. restraining           0.000000000000 Eh    ::
         :: total charge              -2.000000000000 e     ::
         :::::::::::::::::::::::::::::::::::::::::::::::::::::

           -------------------------------------------------
          |                Property Printout                |
           -------------------------------------------------

    * Orbital Energies and Occupations
------------------------------------------------------------------
      #    Occupation            Energy/Eh            Energy/eV
------------------------------------------------------------------
      1        2.0000           -1.2172564             -33.1232
    ...           ...                  ...                  ...
    152        2.0000           -0.2171875              -5.9100
    153        2.0000           -0.2124928              -5.7822
    154        2.0000           -0.2063444              -5.6149
    155        2.0000           -0.2011241              -5.4729
    156        2.0000           -0.1990944              -5.4176
    157        2.0000           -0.1951030              -5.3090
    158        2.0000           -0.1864929              -5.0747
    159        2.0000           -0.1517711              -4.1299
    160        2.0000           -0.1420933              -3.8666
    161        2.0000           -0.1313664              -3.5747
    162        2.0000           -0.1305561              -3.5526
    163        2.0000           -0.1124473              -3.0598
    164        2.0000           -0.1074320              -2.9234 (HOMO)
    165                          0.1214532               3.3049 (LUMO)
    166                          0.1429454               3.8897
    167                          0.1532172               4.1693
    168                          0.1576061               4.2887
    169                          0.1656869               4.5086
    170                          0.1677698               4.5652
    171                          0.1691474               4.6027
    172                          0.1773794               4.8267
    173                          0.1961951               5.3387
    174                          0.2031360               5.5276
    175                          0.2400561               6.5323
    ...                                ...                  ...
    296                          0.9200944              25.0370
------------------------------------------------------------------
               HL-Gap            0.2288853 Eh            6.2283 eV
------------------------------------------------------------------

Atomic charges and shell populations (in atomic units):
-----------------------------------------------------------------
     #    Z                q          p(s)       p(p)       p(d)
-----------------------------------------------------------------
     1    7 N      -0.309515      1.353058   3.956457
     2    6 C       0.006113      1.113735   2.880152
     3    6 C       0.442512      1.103766   2.453722
     4    8 O      -0.524306      1.850963   4.673343
     5    7 N      -0.345698      1.382748   3.962949
     6    6 C       0.006023      1.127701   2.866276
     7    6 C       0.428074      1.111703   2.460223
     8    6 C       0.010712      1.107678   2.881610
     9    8 O      -0.564434      1.852622   4.711812
    10    7 N      -0.322962      1.354661   3.968301
    11    6 C      -0.187536      1.139715   3.047821
    12    6 C       0.423999      1.124965   2.451036
    13    6 C      -0.198014      1.158148   3.039866
    14    6 C       0.015747      1.144008   2.840245
    15    8 O      -0.549648      1.855983   4.693665
    16    6 C       0.502760      1.070513   2.426727
    17    7 N      -0.286193      1.357420   3.928773
    18    6 C      -0.197398      1.175020   3.022377
    19    8 O      -0.714018      1.858734   4.855284
    20    8 O      -0.703782      1.855209   4.848573
    21    6 C       0.391105      1.116911   2.491984
    22    6 C       0.502490      1.097764   2.399746
    23    6 C      -0.001279      1.145035   2.856245
    24    8 O      -0.600519      1.851072   4.749446
    25    8 O      -0.637935      1.861516   4.776419
    26    8 O      -0.753163      1.867817   4.885346
    27    7 N      -0.339925      1.364359   3.975567
    28    6 C      -0.189003      1.130963   3.058039
    29    6 C       0.399164      1.091247   2.509589
    30    6 C      -0.170823      1.132094   3.038729
    31    6 C       0.009803      1.133963   2.856234
    32    8 O      -0.557438      1.852900   4.704539
    33    6 C      -0.195409      1.146102   3.049307
    34    7 N      -0.331364      1.348873   3.982490
    35    6 C      -0.191871      1.152683   3.039188
    36    6 C      -0.109846      1.151236   2.958610
    37    6 C       0.402253      1.099066   2.498681
    38    6 C      -0.107326      1.179171   2.928155
    39    7 N      -0.517521      1.479741   4.037780
    40    6 C       0.022580      1.127708   2.849712
    41    8 O      -0.560361      1.854585   4.705776
    42   16 S      -0.233776      1.853984   4.291048   0.088744
    43    7 N      -0.387803      1.362429   4.025373
    44    6 C      -0.096272      1.161434   2.934838
    45    6 C      -0.211424      1.168359   3.043065
    46    6 C       0.410961      1.126570   2.462469
    47    6 C      -0.264144      1.173859   3.090284
    48    6 C      -0.205875      1.145447   3.060428
    49    8 O      -0.494872      1.851269   4.643603
    50    6 C      -0.244701      1.160032   3.084669
    51    6 C      -0.186307      1.143223   3.043084
    52    6 C      -0.192563      1.161478   3.031085
    53    6 C      -0.085361      1.138740   2.946621
    54    7 N      -0.398724      1.363896   4.034828
    55    6 C       0.273709      1.101194   2.625097
    56    7 N      -0.534568      1.595066   3.939501
    57    7 N      -0.459202      1.453926   4.005275
    58    6 C      -0.264812      1.175438   3.089375
    59    1 H       0.259069      0.740931
    60    1 H       0.110128      0.889872
    61    1 H       0.281162      0.718838
    62    1 H       0.123119      0.876881
    63    1 H       0.102383      0.897617
    64    1 H       0.276607      0.723393
    65    1 H       0.107655      0.892345
    66    1 H       0.112999      0.887001
    67    1 H       0.103541      0.896459
    68    1 H       0.078726      0.921274
    69    1 H       0.129239      0.870761
    70    1 H       0.313568      0.686432
    71    1 H       0.102503      0.897497
    72    1 H       0.091726      0.908274
    73    1 H       0.127420      0.872580
    74    1 H       0.289798      0.710202
    75    1 H       0.094436      0.905564
    76    1 H       0.129327      0.870673
    77    1 H       0.099689      0.900311
    78    1 H       0.088984      0.911016
    79    1 H       0.117931      0.882069
    80    1 H       0.125580      0.874420
    81    1 H       0.091332      0.908668
    82    1 H       0.269480      0.730520
    83    1 H       0.123219      0.876781
    84    1 H       0.122572      0.877428
    85    1 H       0.113493      0.886507
    86    1 H       0.072997      0.927003
    87    1 H       0.109609      0.890391
    88    1 H       0.095540      0.904460
    89    1 H       0.238067      0.761933
    90    1 H       0.189788      0.810212
    91    1 H       0.145668      0.854332
    92    1 H       0.250088      0.749912
    93    1 H       0.087824      0.912176
    94    1 H       0.138820      0.861180
    95    1 H       0.100525      0.899475
    96    1 H       0.103329      0.896671
    97    1 H       0.100318      0.899682
    98    1 H       0.077272      0.922728
    99    1 H       0.086097      0.913903
   100    1 H       0.094949      0.905051
   101    1 H       0.092583      0.907417
   102    1 H       0.077895      0.922105
   103    1 H       0.087673      0.912327
   104    1 H       0.118794      0.881206
   105    1 H       0.121790      0.878210
   106    1 H       0.108294      0.891706
   107    1 H       0.098717      0.901283
   108    1 H       0.110285      0.889715
   109    1 H       0.104264      0.895736
   110    1 H       0.091317      0.908683
   111    1 H       0.270691      0.729309
   112    1 H       0.217166      0.782834
   113    1 H       0.243851      0.756149
   114    1 H       0.240250      0.759750
   115    1 H       0.148497      0.851503
   116    1 H       0.086522      0.913478
   117    1 H       0.084523      0.915477
-----------------------------------------------------------------


Wiberg/Mayer (AO) data.
largest (>0.10) Wiberg bond orders for each atom

 ---------------------------------------------------------------------------
     #   Z sym  total        # sym  WBO       # sym  WBO       # sym  WBO
 ---------------------------------------------------------------------------
     1   7 N    3.327 --     7 C    1.214     2 C    0.980    59 N    0.896
                             9 C    0.149
     2   6 C    3.946 --    51 C    0.993     1 N    0.980    60 N    0.935
                             3 C    0.903
     3   6 C    3.855 --     4 C    1.694     5 N    1.170     2 C    0.903
     4   8 C    1.969 --     3 C    1.694     5 N    0.146
     5   7 N    3.287 --     3 C    1.170     6 C    0.999    61 N    0.882
                             4 C    0.146
     6   6 C    3.940 --     5 N    0.999    58 C    0.984    62 N    0.929
                            46 C    0.903
     7   6 C    3.843 --     9 C    1.636     1 N    1.214     8 C    0.901
     8   6 C    3.941 --    11 C    0.995    10 N    0.991    63 N    0.938
                             7 C    0.901
     9   8 C    1.926 --     7 C    1.636     1 N    0.149
    10   7 N    3.339 --    12 C    1.203     8 C    0.991    64 N    0.882
                            15 C    0.154
    11   6 C    3.957 --    13 C    0.997     8 C    0.995    66 N    0.950
                            65 N    0.939
    12   6 C    3.839 --    15 C    1.677    10 N    1.203    14 C    0.876
    13   6 C    3.958 --    11 C    0.997    68 N    0.959    67 N    0.958
                            16 C    0.932
    14   6 C    3.913 --    18 C    0.988    17 N    0.962    69 N    0.940
                            12 C    0.876
    15   8 C    1.951 --    12 C    1.677    10 N    0.154
    16   6 C    3.874 --    20 C    1.475    19 C    1.449    13 C    0.932
    17   7 N    3.434 --    21 C    1.380    14 C    0.962    70 N    0.834
                            24 C    0.163
    18   6 C    3.948 --    14 C    0.988    72 N    0.963    71 N    0.955
                            22 C    0.902
    19   8 C    1.722 --    16 C    1.449    20 C    0.200
    20   8 C    1.743 --    16 C    1.475    19 C    0.200
    21   6 C    3.864 --    24 C    1.555    17 N    1.380    23 C    0.852
    22   6 C    3.857 --    25 C    1.552    26 C    1.379    18 C    0.902
    23   6 C    3.916 --    28 C    0.995    27 N    0.970    73 N    0.935
                            21 C    0.852
    24   8 C    1.900 --    21 C    1.555    17 N    0.163
    25   8 C    1.830 --    22 C    1.552    26 C    0.191
    26   8 C    1.689 --    22 C    1.379    25 C    0.191
    27   7 N    3.369 --    29 C    1.274    23 C    0.970    74 N    0.856
                            32 C    0.176
    28   6 C    3.964 --    30 C    1.013    23 C    0.995    75 N    0.948
                            76 N    0.939
    29   6 C    3.889 --    32 C    1.612    27 N    1.274    31 C    0.941
    30   6 C    3.970 --    33 C    1.015    28 C    1.013    78 N    0.954
                            77 N    0.944
    31   6 C    3.919 --    35 C    0.963    34 N    0.953    29 C    0.941
                            79 N    0.936
    32   8 C    1.915 --    29 C    1.612    27 N    0.176
    33   6 C    3.964 --    30 C    1.015    36 C    0.999    81 N    0.959
                            80 N    0.934
    34   7 N    3.332 --    37 C    1.232    31 C    0.953    82 N    0.888
                            41 C    0.163
    35   6 C    3.953 --    38 C    1.019    31 C    0.963    83 N    0.950
                            84 N    0.943
    36   6 C    3.947 --    33 C    0.999    39 N    0.999    86 N    0.969
                            85 N    0.958
    37   6 C    3.879 --    41 C    1.628    34 N    1.232    40 C    0.939
    38   6 C    3.940 --    35 C    1.019    42 O    0.957    87 N    0.955
                            88 N    0.954
    39   7 N    2.945 --    36 C    0.999    90 N    0.955    89 N    0.931
    40   6 C    3.932 --    43 N    0.976    44 C    0.957    37 C    0.939
                            91 N    0.930
    41   8 C    1.908 --    37 C    1.628    34 N    0.163
    42  16 O    2.133 --    45 C    1.038    38 C    0.957
    43   7 N    3.250 --    46 C    1.119    40 C    0.976    92 N    0.898
                            49 C    0.151
    44   6 C    3.964 --    47 C    1.010    48 C    0.984    40 C    0.957
                            93 N    0.942
    45   6 C    3.925 --    42 O    1.038    96 N    0.960    95 N    0.949
                            94 N    0.940
    46   6 C    3.840 --    49 C    1.742    43 N    1.119     6 C    0.903
    47   6 C    3.959 --    44 C    1.010    98 N    0.972    97 N    0.972
                            99 N    0.970
    48   6 C    3.969 --    50 C    1.034    44 C    0.984   100 N    0.958
                           101 N    0.953
    49   8 C    2.014 --    46 C    1.742    43 N    0.151
    50   6 C    3.957 --    48 C    1.034   103 N    0.971   102 N    0.968
                           104 N    0.957
    51   6 C    3.960 --    52 C    1.011     2 C    0.993   105 N    0.952
                           106 N    0.950
    52   6 C    3.958 --    51 C    1.011    53 C    0.987   108 N    0.959
                           107 N    0.956
    53   6 C    3.933 --    54 N    0.996    52 C    0.987   110 N    0.954
                           109 N    0.952
    54   7 N    3.176 --    55 C    1.089    53 C    0.996   111 N    0.886
                            56 N    0.106
    55   6 C    3.940 --    56 N    1.725    57 N    1.090    54 N    1.089
    56   7 N    2.896 --    55 C    1.725   112 N    0.911    54 N    0.106
    57   7 N    3.081 --    55 C    1.090   114 N    0.921   113 N    0.912
    58   6 C    3.945 --     6 C    0.984   116 N    0.973   117 N    0.965
                           115 N    0.957
    59   1 N    0.933 --     1 N    0.896
    60   1 N    0.988 --     2 C    0.935
    61   1 N    0.921 --     5 N    0.882
    62   1 N    0.985 --     6 C    0.929
    63   1 N    0.990 --     8 C    0.938
    64   1 N    0.923 --    10 N    0.882
    65   1 N    0.988 --    11 C    0.939
    66   1 N    0.987 --    11 C    0.950
    67   1 N    0.989 --    13 C    0.958
    68   1 N    0.994 --    13 C    0.959
    69   1 N    0.983 --    14 C    0.940
    70   1 N    0.902 --    17 N    0.834
    71   1 N    0.989 --    18 C    0.955
    72   1 N    0.992 --    18 C    0.963
    73   1 N    0.984 --    23 C    0.935
    74   1 N    0.916 --    27 N    0.856
    75   1 N    0.991 --    28 C    0.948
    76   1 N    0.983 --    28 C    0.939
    77   1 N    0.990 --    30 C    0.944
    78   1 N    0.992 --    30 C    0.954
    79   1 N    0.986 --    31 C    0.936
    80   1 N    0.984 --    33 C    0.934
    81   1 N    0.992 --    33 C    0.959
    82   1 N    0.927 --    34 N    0.888
    83   1 N    0.985 --    35 C    0.950
    84   1 N    0.985 --    35 C    0.943
    85   1 N    0.987 --    36 C    0.958
    86   1 N    0.995 --    36 C    0.969
    87   1 N    0.988 --    38 C    0.955
    88   1 N    0.991 --    38 C    0.954
    89   1 N    0.943 --    39 N    0.931
    90   1 N    0.964 --    39 N    0.955
    91   1 N    0.979 --    40 C    0.930
    92   1 N    0.937 --    43 N    0.898
    93   1 N    0.992 --    44 C    0.942
    94   1 N    0.981 --    45 C    0.940
    95   1 N    0.990 --    45 C    0.949
    96   1 N    0.989 --    45 C    0.960
    97   1 N    0.990 --    47 C    0.972
    98   1 N    0.994 --    47 C    0.972
    99   1 N    0.993 --    47 C    0.970
   100   1 N    0.991 --    48 C    0.958
   101   1 N    0.991 --    48 C    0.953
   102   1 N    0.994 --    50 C    0.968
   103   1 N    0.992 --    50 C    0.971
   104   1 N    0.986 --    50 C    0.957
   105   1 N    0.985 --    51 C    0.952
   106   1 N    0.988 --    51 C    0.950
   107   1 N    0.990 --    52 C    0.956
   108   1 N    0.988 --    52 C    0.959
   109   1 N    0.989 --    53 C    0.952
   110   1 N    0.992 --    53 C    0.954
   111   1 N    0.927 --    54 N    0.886
   112   1 N    0.953 --    56 N    0.911
   113   1 N    0.941 --    57 N    0.912
   114   1 N    0.942 --    57 N    0.921
   115   1 N    0.978 --    58 C    0.957
   116   1 N    0.993 --    58 C    0.973
   117   1 N    0.993 --    58 C    0.965
 ---------------------------------------------------------------------------

Topologies differ in total number of bonds
Writing topology from bond orders to xtbtopo.mol

Atomic dipole moments (in atomic units):
---------------------------------------------------------
     #    Z                 x            y            z
---------------------------------------------------------
           total     3.900226    13.764081     0.276251
---------------------------------------------------------
         |total|    14.308669    36.369008 Debye


           -------------------------------------------------
          | TOTAL ENERGY            -3197.352827935731 Eh   |
          | GRADIENT NORM               0.406634547098 Eh/α |
           -------------------------------------------------

------------------------------------------------------------------------
 * finished run on 2026/05/23 at 12:36:18.200     
------------------------------------------------------------------------
 total:
 * wall-time:     0 d,  0 h,  0 min, 54.352 sec
 *  cpu-time:     0 d,  0 h,  1 min, 36.581 sec
 * ratio c/w:     1.777 speedup
 SCF:
 * wall-time:     0 d,  0 h,  0 min, 53.843 sec
 *  cpu-time:     0 d,  0 h,  1 min, 36.135 sec
 * ratio c/w:     1.785 speedup

normal termination of xtb
