      -----------------------------------------------------------      
     |                   =====================                   |     
     |                           x T B                           |     
     |                   =====================                   |     
     |                         S. Grimme                         |     
     |          Mulliken Center for Theoretical Chemistry        |     
     |                    University of Bonn                     |     
      -----------------------------------------------------------      

   * xtb version 6.7.1 (26dd68d) compiled by 'froitzheim@fs7' on 2026-05-14

   xtb is free software: you can redistribute it and/or modify it under
   the terms of the GNU Lesser General Public License as published by
   the Free Software Foundation, either version 3 of the License, or
   (at your option) any later version.
   
   xtb is distributed in the hope that it will be useful,
   but WITHOUT ANY WARRANTY; without even the implied warranty of
   MERCHANTABILITY or FITNESS FOR A PARTICULAR PURPOSE.  See the
   GNU Lesser General Public License for more details.
   
   Cite this work as:
   * C. Bannwarth, E. Caldeweyher, S. Ehlert, A. Hansen, P. Pracht,
     J. Seibert, S. Spicher, S. Grimme, WIREs Comput. Mol. Sci., 2020, 11,
     e01493. DOI: 10.1002/wcms.1493
   
   for g-xTB:
   * T. Froitzheim, M. Müller, A. Hansen, S. Grimme, ChemRxiv, 2025, preprint.
     DOI: 10.26434/chemrxiv-2025-bjxv
   for GFN2-xTB:
   * C. Bannwarth, S. Ehlert and S. Grimme., J. Chem. Theory Comput., 2019,
     15, 1652-1671. DOI: 10.1021/acs.jctc.8b01176
   for GFN1-xTB:
   * S. Grimme, C. Bannwarth, P. Shushkov, J. Chem. Theory Comput., 2017,
     13, 1989-2009. DOI: 10.1021/acs.jctc.7b00118
   for GFN0-xTB:
   * P. Pracht, E. Caldeweyher, S. Ehlert, S. Grimme, ChemRxiv, 2019, preprint.
     DOI: 10.26434/chemrxiv.8326202.v1
   for GFN-FF:
   * S. Spicher and S. Grimme, Angew. Chem. Int. Ed., 2020, 59, 15665-15673.
     DOI: 10.1002/anie.202004239
   
   for ALPB and GBSA implicit solvation:
   * S. Ehlert, M. Stahn, S. Spicher, S. Grimme, J. Chem. Theory Comput.,
     2021, 17, 4250-4261. DOI: 10.1021/acs.jctc.1c00471
   
   for ddCOSMO and CPCM-X implicit solvation:
   * M. Stahn, S. Ehlert, S. Grimme, J. Phys. Chem. A,
     2023, XX, XXXX-XXXX. DOI: 10.1021/acs.jpca.3c04382
   
   for DFT-D4:
   * E. Caldeweyher, C. Bannwarth and S. Grimme, J. Chem. Phys., 2017,
     147, 034112. DOI: 10.1063/1.4993215
   * E. Caldeweyher, S. Ehlert, A. Hansen, H. Neugebauer, S. Spicher,
     C. Bannwarth and S. Grimme, J. Chem. Phys., 2019, 150, 154122.
     DOI: 10.1063/1.5090222
   * E. Caldeweyher, J.-M. Mewes, S. Ehlert and S. Grimme, Phys. Chem. Chem. Phys.
     2020, 22, 8499-8512. DOI: 10.1039/D0CP00502A
   
   for sTDA-xTB:
   * S. Grimme and C. Bannwarth, J. Chem. Phys., 2016, 145, 054103.
     DOI: 10.1063/1.4959605
   
   in the mass-spec context:
   * V. Asgeirsson, C. Bauer and S. Grimme, Chem. Sci., 2017, 8, 4879.
     DOI: 10.1039/c7sc00601b
   * J. Koopman and S. Grimme, ACS Omega 2019, 4, 12, 15120-15133.
     DOI: 10.1021/acsomega.9b02011
   
   for metadynamics refer to:
   * S. Grimme, J. Chem. Theory Comput., 2019, 155, 2847-2862
     DOI: 10.1021/acs.jctc.9b00143
   
   for SPH calculations refer to:
   * S. Spicher and S. Grimme, J. Chem. Theory Comput., 2021, 17, 1701-1714
     DOI: 10.1021/acs.jctc.0c01306
   
   for ONIOM refer to:
   * C. Plett, A. Katbashev, S. Ehlert, S. Grimme, M. Bursch,
     Phys. Chem. Chem. Phys., 2023, 25, 17860-17868. DOI: 10.1039/D3CP02178E
   
   for DIPRO refer to:
   * J. Kohn, N. Gildemeister, S. Grimme, D. Fazzi, A. Hansen,
     J. Chem. Phys. 159, 144106 (2023). DOI: 10.1063/5.0167484
   
   for PTB refer to:
   * S. Grimme, M. Mueller, A. Hansen, J. Chem. Phys., 2023, 158, 124111.
     DOI: 10.1063/5.0137838
   
   with help from (in alphabetical order)
   P. Atkinson, C. Bannwarth, F. Bohle, G. Brandenburg, E. Caldeweyher,
   M. Checinski, S. Dohm, S. Ehlert, S. Ehrlich, M. Friede, T. Froitzheim,
   I. Gerasimov, C. Hölzer, A. Katbashev, J. Kohn, J. Koopman, C. Lavigne,
   S. Lehtola, F. März, M. Müller, F. Musil, H. Neugebauer, J. Pisarek,
   C. Plett, P. Pracht, F. Pultar, J. Seibert, P. Shushkov, S. Spicher,
   M. Stahn, M. Steiner, T. Strunk, J. Stückrath, T. Rose, and J. Unsleber
   
 * started run on 2026/05/23 at 12:56:28.209     
   ID    Z sym.   atoms
    1    7 N      1, 5, 10, 17, 27, 34, 39, 43, 54, 56, 57
    2    6 C      2, 3, 6-8, 11-14, 16, 18, 21-23, 28-31, 33, 35-38, 40,
                  44-48, 50-53, 55, 58
    3    8 O      4, 9, 15, 19, 20, 24-26, 32, 41, 49
    4   16 S      42
    5    1 H      59-117

           -------------------------------------------------
          |                Calculation Setup                |
           -------------------------------------------------

          program call               : /home/xchen/software/xtb-6.7.1-gxtb/bin/xtb /home/xchen/Test/benchmark/md_sampled/04_7_0231_n2/snap_0138.xyz --charge -2 --gxtb --norestart
          coordinate file            : /home/xchen/Test/benchmark/md_sampled/04_7_0231_n2/snap_0138.xyz
          omp threads                :                    48

core increment energy         -2.9312527735450E+03 Eh
dispersion energy              2.3508457611313E-02 Eh
molecular charge              -2.0000000000000E+00 e
number of electrons            3.2799999999710E+02 e
number of unpaired electrons   0.0000000000000E+00 e
wavefunction                   restricted
integral cutoff                2.6907767250513E+01 bohr
energy convergence             1.0000000000000E-06 Eh
density convergence            2.0000000000000E-05 e

------------------------------------------------------------
  cycle        total energy    energy error   density error
------------------------------------------------------------
      1     -3195.849693666  -2.6462043E+02   0.0000000E+00
      2     -3196.347921280  -4.9822761E-01   2.0240314E-02
      3     -3196.666470259  -3.1854898E-01   1.5933707E-02
      4     -3197.336842514  -6.7037226E-01   1.2594650E-02
      5     -3197.347059167  -1.0216653E-02   8.7392751E-04
      6     -3197.347890520  -8.3135300E-04   1.7976569E-04
      7     -3197.347960232  -6.9711406E-05   5.1755302E-05
      8     -3197.347965355  -5.1229274E-06   1.6571450E-05
      9     -3197.347965948  -5.9328221E-07   2.3406058E-06
------------------------------------------------------------

electronic energy             -2.6611870086072E+02 Eh
total energy                  -3.1973479659481E+03 Eh

Post processing:
 | Mayer-Wiberg bond orders
 | Molecular Multipole Moments

 total:                                  16.303 sec
 - increment                              0.000 sec (  0%)
 - repulsion                              0.049 sec (  0%)
 - dispersion                             0.320 sec (  1%)
 - coulomb                                0.144 sec (  0%)
 - exchange                               0.011 sec (  0%)
 - hamiltonian                            0.549 sec (  3%)
 - acp                                    0.287 sec (  1%)
 - spin polarization                      0.000 sec (  0%)
 - post processing                        0.022 sec (  0%)
 - scc                                   12.838 sec ( 78%)
 - coulomb gradient                       0.186 sec (  1%)
 - dispersion gradient                    0.078 sec (  0%)
 - exchange gradient                      0.777 sec (  4%)
 - repulsion gradient                     0.010 sec (  0%)
 - acp gradient                           0.475 sec (  2%)
 - hamiltonian gradient                   0.445 sec (  2%)
 - gradient                               1.972 sec ( 12%)

         :::::::::::::::::::::::::::::::::::::::::::::::::::::
         ::                     SUMMARY                     ::
         :::::::::::::::::::::::::::::::::::::::::::::::::::::
         :: total energy           -3197.347965948113 Eh    ::
         :: gradient norm              0.430445666786 Eh/a0 ::
         :: HOMO-LUMO gap              5.866777743827 eV    ::
         ::.................................................::
         :: add. restraining           0.000000000000 Eh    ::
         :: total charge              -2.000000000000 e     ::
         :::::::::::::::::::::::::::::::::::::::::::::::::::::

           -------------------------------------------------
          |                Property Printout                |
           -------------------------------------------------

    * Orbital Energies and Occupations
------------------------------------------------------------------
      #    Occupation            Energy/Eh            Energy/eV
------------------------------------------------------------------
      1        2.0000           -1.2082702             -32.8787
    ...           ...                  ...                  ...
    152        2.0000           -0.2129171              -5.7938
    153        2.0000           -0.2097616              -5.7079
    154        2.0000           -0.2073008              -5.6409
    155        2.0000           -0.2054165              -5.5897
    156        2.0000           -0.1965059              -5.3472
    157        2.0000           -0.1883235              -5.1245
    158        2.0000           -0.1835345              -4.9942
    159        2.0000           -0.1789318              -4.8690
    160        2.0000           -0.1697975              -4.6204
    161        2.0000           -0.1676792              -4.5628
    162        2.0000           -0.1267473              -3.4490
    163        2.0000           -0.1141664              -3.1066
    164        2.0000           -0.1011249              -2.7517 (HOMO)
    165                          0.1144752               3.1150 (LUMO)
    166                          0.1396597               3.8003
    167                          0.1486189               4.0441
    168                          0.1607496               4.3742
    169                          0.1656893               4.5086
    170                          0.1743298               4.7438
    171                          0.1773907               4.8270
    172                          0.1872710               5.0959
    173                          0.1958352               5.3289
    174                          0.2133383               5.8052
    175                          0.2296662               6.2495
    ...                                ...                  ...
    296                          0.9467068              25.7612
------------------------------------------------------------------
               HL-Gap            0.2156001 Eh            5.8668 eV
------------------------------------------------------------------

Atomic charges and shell populations (in atomic units):
-----------------------------------------------------------------
     #    Z                q          p(s)       p(p)       p(d)
-----------------------------------------------------------------
     1    7 N      -0.372517      1.355207   4.017311
     2    6 C       0.014262      1.126193   2.859546
     3    6 C       0.449681      1.104490   2.445829
     4    8 O      -0.550879      1.852717   4.698161
     5    7 N      -0.318226      1.327397   3.990828
     6    6 C      -0.007234      1.098246   2.908988
     7    6 C       0.436606      1.095687   2.467708
     8    6 C      -0.024333      1.129277   2.895056
     9    8 O      -0.507435      1.847787   4.659648
    10    7 N      -0.337991      1.404484   3.933507
    11    6 C      -0.154628      1.156995   2.997633
    12    6 C       0.423401      1.137296   2.439303
    13    6 C      -0.220269      1.159001   3.061267
    14    6 C      -0.020408      1.129806   2.890602
    15    8 O      -0.544045      1.848361   4.695684
    16    6 C       0.502661      1.101818   2.395521
    17    7 N      -0.553566      1.530955   4.022611
    18    6 C      -0.200262      1.145989   3.054273
    19    8 O      -0.697286      1.860135   4.837151
    20    8 O      -0.721977      1.865689   4.856288
    21    6 C       0.389234      1.091181   2.519585
    22    6 C       0.504069      1.094829   2.401102
    23    6 C      -0.005815      1.128057   2.877758
    24    8 O      -0.659857      1.847721   4.812136
    25    8 O      -0.596675      1.862281   4.734394
    26    8 O      -0.488399      1.793211   4.695189
    27    7 N      -0.294538      1.353295   3.941243
    28    6 C      -0.167133      1.151670   3.015463
    29    6 C       0.396200      1.087548   2.516252
    30    6 C      -0.174813      1.132021   3.042792
    31    6 C       0.011619      1.128956   2.859425
    32    8 O      -0.576370      1.858535   4.717835
    33    6 C      -0.208314      1.149334   3.058980
    34    7 N      -0.343776      1.367262   3.976514
    35    6 C      -0.180416      1.139405   3.041011
    36    6 C      -0.068516      1.136675   2.931841
    37    6 C       0.426063      1.100339   2.473597
    38    6 C      -0.116598      1.189472   2.927126
    39    7 N      -0.523851      1.341468   4.182383
    40    6 C      -0.006841      1.137781   2.869059
    41    8 O      -0.539603      1.852634   4.686969
    42   16 S      -0.246564      1.903244   4.279254   0.064066
    43    7 N      -0.346211      1.367425   3.978785
    44    6 C      -0.103075      1.146124   2.956951
    45    6 C      -0.200523      1.197807   3.002716
    46    6 C       0.397123      1.116711   2.486166
    47    6 C      -0.293568      1.171143   3.122425
    48    6 C      -0.194970      1.160068   3.034902
    49    8 O      -0.527126      1.860056   4.667070
    50    6 C      -0.275870      1.178333   3.097537
    51    6 C      -0.204398      1.157115   3.047282
    52    6 C      -0.182613      1.152074   3.030539
    53    6 C      -0.082750      1.117600   2.965150
    54    7 N      -0.373724      1.348210   4.025514
    55    6 C       0.274339      1.098239   2.627423
    56    7 N      -0.552975      1.601974   3.951001
    57    7 N      -0.482524      1.454496   4.028028
    58    6 C      -0.275562      1.167477   3.108084
    59    1 H       0.296121      0.703879
    60    1 H       0.097876      0.902124
    61    1 H       0.290375      0.709625
    62    1 H       0.116132      0.883868
    63    1 H       0.110822      0.889178
    64    1 H       0.269666      0.730334
    65    1 H       0.094693      0.905307
    66    1 H       0.104952      0.895048
    67    1 H       0.122557      0.877443
    68    1 H       0.065441      0.934559
    69    1 H       0.109241      0.890759
    70    1 H       0.398303      0.601697
    71    1 H       0.131730      0.868270
    72    1 H       0.138733      0.861267
    73    1 H       0.120824      0.879176
    74    1 H       0.265993      0.734007
    75    1 H       0.066563      0.933437
    76    1 H       0.123620      0.876380
    77    1 H       0.096374      0.903626
    78    1 H       0.072633      0.927367
    79    1 H       0.102619      0.897381
    80    1 H       0.125561      0.874439
    81    1 H       0.078123      0.921877
    82    1 H       0.267579      0.732421
    83    1 H       0.126694      0.873306
    84    1 H       0.134106      0.865894
    85    1 H       0.096025      0.903975
    86    1 H       0.033818      0.966182
    87    1 H       0.103165      0.896835
    88    1 H       0.096553      0.903447
    89    1 H       0.274069      0.725931
    90    1 H       0.216373      0.783627
    91    1 H       0.114001      0.885999
    92    1 H       0.274321      0.725679
    93    1 H       0.104030      0.895970
    94    1 H       0.106396      0.893604
    95    1 H       0.117914      0.882086
    96    1 H       0.110136      0.889864
    97    1 H       0.096635      0.903365
    98    1 H       0.096990      0.903010
    99    1 H       0.104695      0.895305
   100    1 H       0.103471      0.896529
   101    1 H       0.120227      0.879773
   102    1 H       0.090934      0.909066
   103    1 H       0.106937      0.893063
   104    1 H       0.068377      0.931623
   105    1 H       0.129614      0.870386
   106    1 H       0.093783      0.906217
   107    1 H       0.082955      0.917045
   108    1 H       0.132322      0.867678
   109    1 H       0.095025      0.904975
   110    1 H       0.099421      0.900579
   111    1 H       0.267866      0.732134
   112    1 H       0.228905      0.771095
   113    1 H       0.233484      0.766516
   114    1 H       0.242012      0.757988
   115    1 H       0.150072      0.849928
   116    1 H       0.066453      0.933547
   117    1 H       0.115454      0.884546
-----------------------------------------------------------------


Wiberg/Mayer (AO) data.
largest (>0.10) Wiberg bond orders for each atom

 ---------------------------------------------------------------------------
     #   Z sym  total        # sym  WBO       # sym  WBO       # sym  WBO
 ---------------------------------------------------------------------------
     1   7 N    3.288 --     7 C    1.174     2 C    0.998    59 N    0.842
                             9 C    0.162
     2   6 C    3.949 --     1 N    0.998    51 C    0.973    60 N    0.942
                             3 C    0.907
     3   6 C    3.851 --     4 C    1.662     5 N    1.195     2 C    0.907
     4   8 C    1.948 --     3 C    1.662     5 N    0.149
     5   7 N    3.334 --     3 C    1.195     6 C    1.015    61 N    0.878
                             4 C    0.149
     6   6 C    3.951 --     5 N    1.015    58 C    0.998    46 C    0.919
                            62 N    0.904
     7   6 C    3.858 --     9 C    1.708     1 N    1.174     8 C    0.904
     8   6 C    3.935 --    10 N    0.981    11 C    0.973    63 N    0.937
                             7 C    0.904
     9   8 C    2.005 --     7 C    1.708     1 N    0.162
    10   7 N    3.276 --    12 C    1.178     8 C    0.981    64 N    0.859
                            15 C    0.147
    11   6 C    3.955 --    13 C    1.023     8 C    0.973    66 N    0.954
                            65 N    0.945
    12   6 C    3.821 --    15 C    1.668    10 N    1.178    14 C    0.865
    13   6 C    3.960 --    11 C    1.023    68 N    0.960    67 N    0.951
                            16 C    0.893
    14   6 C    3.961 --    17 N    1.016    18 C    0.991    69 N    0.940
                            12 C    0.865
    15   8 C    1.990 --    12 C    1.668    10 N    0.147
    16   6 C    3.851 --    19 C    1.482    20 C    1.449    13 C    0.893
    17   7 N    2.927 --    21 C    1.412    14 C    1.016    24 C    0.186
                            70 N    0.140
    18   6 C    3.958 --    14 C    0.991    22 C    0.978    72 N    0.952
                            71 N    0.912
    19   8 C    1.762 --    16 C    1.482    20 C    0.188
    20   8 C    1.712 --    16 C    1.449    19 C    0.188
    21   6 C    3.898 --    24 C    1.499    17 N    1.412    23 C    0.911
    22   6 C    3.829 --    25 C    1.601    26 C    1.196    18 C    0.978
    23   6 C    3.908 --    28 C    0.969    27 N    0.947    73 N    0.943
                            21 C    0.911
    24   8 C    1.825 --    21 C    1.499    17 N    0.186
    25   8 C    1.852 --    22 C    1.601    26 C    0.148
    26   8 C    2.131 --    22 C    1.196    70 N    0.682    25 C    0.148
    27   7 N    3.414 --    29 C    1.323    23 C    0.947    74 N    0.879
                            32 C    0.181
    28   6 C    3.963 --    30 C    1.021    23 C    0.969    75 N    0.955
                            76 N    0.946
    29   6 C    3.900 --    32 C    1.575    27 N    1.323    31 C    0.938
    30   6 C    3.971 --    28 C    1.021    33 C    1.018    78 N    0.948
                            77 N    0.943
    31   6 C    3.929 --    35 C    0.989    29 C    0.938    34 N    0.937
                            79 N    0.933
    32   8 C    1.872 --    29 C    1.575    27 N    0.181
    33   6 C    3.963 --    30 C    1.018    36 C    0.972    81 N    0.957
                            80 N    0.943
    34   7 N    3.333 --    37 C    1.245    31 C    0.937    82 N    0.881
                            41 C    0.176
    35   6 C    3.956 --    38 C    1.010    31 C    0.989    83 N    0.950
                            84 N    0.947
    36   6 C    3.955 --    39 N    1.045    33 C    0.972    85 N    0.963
                            86 N    0.949
    37   6 C    3.873 --    41 C    1.656    34 N    1.245    40 C    0.893
    38   6 C    3.935 --    35 C    1.010    42 O    0.978    88 N    0.961
                            87 N    0.955
    39   7 N    2.965 --    36 C    1.045    90 N    0.932    89 N    0.900
    40   6 C    3.929 --    43 N    0.986    44 C    0.967    91 N    0.933
                            37 C    0.893
    41   8 C    1.949 --    37 C    1.656    34 N    0.176
    42  16 O    2.047 --    45 C    0.988    38 C    0.978
    43   7 N    3.324 --    46 C    1.194    40 C    0.986    92 N    0.878
                            49 C    0.149
    44   6 C    3.967 --    48 C    0.995    47 C    0.991    40 C    0.967
                            93 N    0.953
    45   6 C    3.919 --    42 O    0.988    94 N    0.972    95 N    0.968
                            96 N    0.964
    46   6 C    3.863 --    49 C    1.663    43 N    1.194     6 C    0.919
    47   6 C    3.954 --    44 C    0.991    98 N    0.980    99 N    0.970
                            97 N    0.969
    48   6 C    3.958 --    50 C    1.010    44 C    0.995   100 N    0.960
                           101 N    0.954
    49   8 C    1.947 --    46 C    1.663    43 N    0.149
    50   6 C    3.957 --    48 C    1.010   104 N    0.977   102 N    0.976
                           103 N    0.974
    51   6 C    3.960 --    52 C    1.006     2 C    0.973   105 N    0.955
                           106 N    0.954
    52   6 C    3.956 --    53 C    1.011    51 C    1.006   107 N    0.953
                           108 N    0.945
    53   6 C    3.931 --    52 C    1.011    54 N    0.979   109 N    0.950
                           110 N    0.949
    54   7 N    3.231 --    55 C    1.129    53 C    0.979   111 N    0.887
                            56 N    0.134
    55   6 C    3.940 --    56 N    1.718    54 N    1.129    57 N    1.060
    56   7 N    2.883 --    55 C    1.718   112 N    0.910    54 N    0.134
    57   7 N    3.041 --    55 C    1.060   114 N    0.925   113 N    0.918
    58   6 C    3.948 --     6 C    0.998   116 N    0.975   117 N    0.966
                           115 N    0.954
    59   1 N    0.912 --     1 N    0.842
    60   1 N    0.990 --     2 C    0.942
    61   1 N    0.916 --     5 N    0.878
    62   1 N    0.987 --     6 C    0.904
    63   1 N    0.988 --     8 C    0.937
    64   1 N    0.927 --    10 N    0.859
    65   1 N    0.991 --    11 C    0.945
    66   1 N    0.989 --    11 C    0.954
    67   1 N    0.985 --    13 C    0.951
    68   1 N    0.996 --    13 C    0.960
    69   1 N    0.988 --    14 C    0.940
    70   1 N    0.841 --    26 C    0.682    17 N    0.140
    71   1 N    0.983 --    18 C    0.912
    72   1 N    0.981 --    18 C    0.952
    73   1 N    0.985 --    23 C    0.943
    74   1 N    0.929 --    27 N    0.879
    75   1 N    0.996 --    28 C    0.955
    76   1 N    0.985 --    28 C    0.946
    77   1 N    0.991 --    30 C    0.943
    78   1 N    0.995 --    30 C    0.948
    79   1 N    0.989 --    31 C    0.933
    80   1 N    0.984 --    33 C    0.943
    81   1 N    0.994 --    33 C    0.957
    82   1 N    0.928 --    34 N    0.881
    83   1 N    0.984 --    35 C    0.950
    84   1 N    0.982 --    35 C    0.947
    85   1 N    0.991 --    36 C    0.963
    86   1 N    0.999 --    36 C    0.949
    87   1 N    0.989 --    38 C    0.955
    88   1 N    0.991 --    38 C    0.961
    89   1 N    0.925 --    39 N    0.900
    90   1 N    0.953 --    39 N    0.932
    91   1 N    0.987 --    40 C    0.933
    92   1 N    0.925 --    43 N    0.878
    93   1 N    0.989 --    44 C    0.953
    94   1 N    0.989 --    45 C    0.972
    95   1 N    0.986 --    45 C    0.968
    96   1 N    0.988 --    45 C    0.964
    97   1 N    0.991 --    47 C    0.969
    98   1 N    0.991 --    47 C    0.980
    99   1 N    0.989 --    47 C    0.970
   100   1 N    0.989 --    48 C    0.960
   101   1 N    0.986 --    48 C    0.954
   102   1 N    0.992 --    50 C    0.976
   103   1 N    0.989 --    50 C    0.974
   104   1 N    0.995 --    50 C    0.977
   105   1 N    0.983 --    51 C    0.955
   106   1 N    0.991 --    51 C    0.954
   107   1 N    0.993 --    52 C    0.953
   108   1 N    0.982 --    52 C    0.945
   109   1 N    0.991 --    53 C    0.950
   110   1 N    0.990 --    53 C    0.949
   111   1 N    0.928 --    54 N    0.887
   112   1 N    0.948 --    56 N    0.910
   113   1 N    0.945 --    57 N    0.918
   114   1 N    0.941 --    57 N    0.925
   115   1 N    0.977 --    58 C    0.954
   116   1 N    0.996 --    58 C    0.975
   117   1 N    0.987 --    58 C    0.966
 ---------------------------------------------------------------------------

Topologies differ in total number of bonds
Writing topology from bond orders to xtbtopo.mol

Atomic dipole moments (in atomic units):
---------------------------------------------------------
     #    Z                 x            y            z
---------------------------------------------------------
           total     0.220786    13.480062     2.225995
---------------------------------------------------------
         |total|    13.664401    34.731444 Debye


           -------------------------------------------------
          | TOTAL ENERGY            -3197.347965948113 Eh   |
          | GRADIENT NORM               0.430445666786 Eh/α |
           -------------------------------------------------

------------------------------------------------------------------------
 * finished run on 2026/05/23 at 12:56:45.006     
------------------------------------------------------------------------
 total:
 * wall-time:     0 d,  0 h,  0 min, 16.796 sec
 *  cpu-time:     0 d,  0 h,  0 min, 42.352 sec
 * ratio c/w:     2.522 speedup
 SCF:
 * wall-time:     0 d,  0 h,  0 min, 16.507 sec
 *  cpu-time:     0 d,  0 h,  0 min, 41.924 sec
 * ratio c/w:     2.540 speedup

normal termination of xtb
