      -----------------------------------------------------------      
     |                   =====================                   |     
     |                           x T B                           |     
     |                   =====================                   |     
     |                         S. Grimme                         |     
     |          Mulliken Center for Theoretical Chemistry        |     
     |                    University of Bonn                     |     
      -----------------------------------------------------------      

   * xtb version 6.7.1 (26dd68d) compiled by 'froitzheim@fs7' on 2026-05-14

   xtb is free software: you can redistribute it and/or modify it under
   the terms of the GNU Lesser General Public License as published by
   the Free Software Foundation, either version 3 of the License, or
   (at your option) any later version.
   
   xtb is distributed in the hope that it will be useful,
   but WITHOUT ANY WARRANTY; without even the implied warranty of
   MERCHANTABILITY or FITNESS FOR A PARTICULAR PURPOSE.  See the
   GNU Lesser General Public License for more details.
   
   Cite this work as:
   * C. Bannwarth, E. Caldeweyher, S. Ehlert, A. Hansen, P. Pracht,
     J. Seibert, S. Spicher, S. Grimme, WIREs Comput. Mol. Sci., 2020, 11,
     e01493. DOI: 10.1002/wcms.1493
   
   for g-xTB:
   * T. Froitzheim, M. Müller, A. Hansen, S. Grimme, ChemRxiv, 2025, preprint.
     DOI: 10.26434/chemrxiv-2025-bjxv
   for GFN2-xTB:
   * C. Bannwarth, S. Ehlert and S. Grimme., J. Chem. Theory Comput., 2019,
     15, 1652-1671. DOI: 10.1021/acs.jctc.8b01176
   for GFN1-xTB:
   * S. Grimme, C. Bannwarth, P. Shushkov, J. Chem. Theory Comput., 2017,
     13, 1989-2009. DOI: 10.1021/acs.jctc.7b00118
   for GFN0-xTB:
   * P. Pracht, E. Caldeweyher, S. Ehlert, S. Grimme, ChemRxiv, 2019, preprint.
     DOI: 10.26434/chemrxiv.8326202.v1
   for GFN-FF:
   * S. Spicher and S. Grimme, Angew. Chem. Int. Ed., 2020, 59, 15665-15673.
     DOI: 10.1002/anie.202004239
   
   for ALPB and GBSA implicit solvation:
   * S. Ehlert, M. Stahn, S. Spicher, S. Grimme, J. Chem. Theory Comput.,
     2021, 17, 4250-4261. DOI: 10.1021/acs.jctc.1c00471
   
   for ddCOSMO and CPCM-X implicit solvation:
   * M. Stahn, S. Ehlert, S. Grimme, J. Phys. Chem. A,
     2023, XX, XXXX-XXXX. DOI: 10.1021/acs.jpca.3c04382
   
   for DFT-D4:
   * E. Caldeweyher, C. Bannwarth and S. Grimme, J. Chem. Phys., 2017,
     147, 034112. DOI: 10.1063/1.4993215
   * E. Caldeweyher, S. Ehlert, A. Hansen, H. Neugebauer, S. Spicher,
     C. Bannwarth and S. Grimme, J. Chem. Phys., 2019, 150, 154122.
     DOI: 10.1063/1.5090222
   * E. Caldeweyher, J.-M. Mewes, S. Ehlert and S. Grimme, Phys. Chem. Chem. Phys.
     2020, 22, 8499-8512. DOI: 10.1039/D0CP00502A
   
   for sTDA-xTB:
   * S. Grimme and C. Bannwarth, J. Chem. Phys., 2016, 145, 054103.
     DOI: 10.1063/1.4959605
   
   in the mass-spec context:
   * V. Asgeirsson, C. Bauer and S. Grimme, Chem. Sci., 2017, 8, 4879.
     DOI: 10.1039/c7sc00601b
   * J. Koopman and S. Grimme, ACS Omega 2019, 4, 12, 15120-15133.
     DOI: 10.1021/acsomega.9b02011
   
   for metadynamics refer to:
   * S. Grimme, J. Chem. Theory Comput., 2019, 155, 2847-2862
     DOI: 10.1021/acs.jctc.9b00143
   
   for SPH calculations refer to:
   * S. Spicher and S. Grimme, J. Chem. Theory Comput., 2021, 17, 1701-1714
     DOI: 10.1021/acs.jctc.0c01306
   
   for ONIOM refer to:
   * C. Plett, A. Katbashev, S. Ehlert, S. Grimme, M. Bursch,
     Phys. Chem. Chem. Phys., 2023, 25, 17860-17868. DOI: 10.1039/D3CP02178E
   
   for DIPRO refer to:
   * J. Kohn, N. Gildemeister, S. Grimme, D. Fazzi, A. Hansen,
     J. Chem. Phys. 159, 144106 (2023). DOI: 10.1063/5.0167484
   
   for PTB refer to:
   * S. Grimme, M. Mueller, A. Hansen, J. Chem. Phys., 2023, 158, 124111.
     DOI: 10.1063/5.0137838
   
   with help from (in alphabetical order)
   P. Atkinson, C. Bannwarth, F. Bohle, G. Brandenburg, E. Caldeweyher,
   M. Checinski, S. Dohm, S. Ehlert, S. Ehrlich, M. Friede, T. Froitzheim,
   I. Gerasimov, C. Hölzer, A. Katbashev, J. Kohn, J. Koopman, C. Lavigne,
   S. Lehtola, F. März, M. Müller, F. Musil, H. Neugebauer, J. Pisarek,
   C. Plett, P. Pracht, F. Pultar, J. Seibert, P. Shushkov, S. Spicher,
   M. Stahn, M. Steiner, T. Strunk, J. Stückrath, T. Rose, and J. Unsleber
   
 * started run on 2026/05/23 at 12:52:03.967     
   ID    Z sym.   atoms
    1    7 N      1, 5, 10, 17, 27, 34, 39, 43, 54, 56, 57
    2    6 C      2, 3, 6-8, 11-14, 16, 18, 21-23, 28-31, 33, 35-38, 40,
                  44-48, 50-53, 55, 58
    3    8 O      4, 9, 15, 19, 20, 24-26, 32, 41, 49
    4   16 S      42
    5    1 H      59-117

           -------------------------------------------------
          |                Calculation Setup                |
           -------------------------------------------------

          program call               : /home/xchen/software/xtb-6.7.1-gxtb/bin/xtb /home/xchen/Test/benchmark/md_sampled/04_7_0231_n2/snap_0109.xyz --charge -2 --gxtb --norestart
          coordinate file            : /home/xchen/Test/benchmark/md_sampled/04_7_0231_n2/snap_0109.xyz
          omp threads                :                    48

core increment energy         -2.9312527735450E+03 Eh
dispersion energy              2.3099245302284E-02 Eh
molecular charge              -2.0000000000000E+00 e
number of electrons            3.2799999999710E+02 e
number of unpaired electrons   0.0000000000000E+00 e
wavefunction                   restricted
integral cutoff                2.6907767250513E+01 bohr
energy convergence             1.0000000000000E-06 Eh
density convergence            2.0000000000000E-05 e

------------------------------------------------------------
  cycle        total energy    energy error   density error
------------------------------------------------------------
      1     -3195.837523067  -2.6460785E+02   0.0000000E+00
      2     -3196.342511101  -5.0498803E-01   2.0151174E-02
      3     -3196.663967261  -3.2145616E-01   1.5809104E-02
      4     -3197.340223741  -6.7625648E-01   1.2468791E-02
      5     -3197.351448797  -1.1225056E-02   9.5912198E-04
      6     -3197.352353828  -9.0503106E-04   1.7585888E-04
      7     -3197.352430625  -7.6797890E-05   5.3624394E-05
      8     -3197.352437609  -6.9833513E-06   1.6980515E-05
      9     -3197.352438352  -7.4290108E-07   2.7320353E-06
------------------------------------------------------------

electronic energy             -2.6612276405202E+02 Eh
total energy                  -3.1973524383517E+03 Eh

Post processing:
 | Mayer-Wiberg bond orders
 | Molecular Multipole Moments

 total:                                  12.473 sec
 - increment                              0.000 sec (  0%)
 - repulsion                              0.012 sec (  0%)
 - dispersion                             0.483 sec (  3%)
 - coulomb                                0.197 sec (  1%)
 - exchange                               0.005 sec (  0%)
 - hamiltonian                            0.461 sec (  3%)
 - acp                                    0.450 sec (  3%)
 - spin polarization                      0.000 sec (  0%)
 - post processing                        0.286 sec (  2%)
 - scc                                    9.712 sec ( 77%)
 - coulomb gradient                       0.078 sec (  0%)
 - dispersion gradient                    0.031 sec (  0%)
 - exchange gradient                      0.136 sec (  1%)
 - repulsion gradient                     0.007 sec (  0%)
 - acp gradient                           0.350 sec (  2%)
 - hamiltonian gradient                   0.533 sec (  4%)
 - gradient                               1.133 sec (  9%)

         :::::::::::::::::::::::::::::::::::::::::::::::::::::
         ::                     SUMMARY                     ::
         :::::::::::::::::::::::::::::::::::::::::::::::::::::
         :: total energy           -3197.352438351715 Eh    ::
         :: gradient norm              0.412675050700 Eh/a0 ::
         :: HOMO-LUMO gap              6.195967750545 eV    ::
         ::.................................................::
         :: add. restraining           0.000000000000 Eh    ::
         :: total charge              -2.000000000000 e     ::
         :::::::::::::::::::::::::::::::::::::::::::::::::::::

           -------------------------------------------------
          |                Property Printout                |
           -------------------------------------------------

    * Orbital Energies and Occupations
------------------------------------------------------------------
      #    Occupation            Energy/Eh            Energy/eV
------------------------------------------------------------------
      1        2.0000           -1.1981685             -32.6038
    ...           ...                  ...                  ...
    152        2.0000           -0.2085976              -5.6762
    153        2.0000           -0.2072397              -5.6393
    154        2.0000           -0.2029013              -5.5212
    155        2.0000           -0.1997630              -5.4358
    156        2.0000           -0.1903318              -5.1792
    157        2.0000           -0.1862647              -5.0685
    158        2.0000           -0.1835559              -4.9948
    159        2.0000           -0.1806537              -4.9158
    160        2.0000           -0.1709185              -4.6509
    161        2.0000           -0.1514667              -4.1216
    162        2.0000           -0.1490200              -4.0550
    163        2.0000           -0.1328487              -3.6150
    164        2.0000           -0.1036716              -2.8210 (HOMO)
    165                          0.1240260               3.3749 (LUMO)
    166                          0.1367472               3.7211
    167                          0.1502883               4.0896
    168                          0.1620205               4.4088
    169                          0.1632330               4.4418
    170                          0.1637096               4.4548
    171                          0.1771972               4.8218
    172                          0.1852839               5.0418
    173                          0.1890966               5.1456
    174                          0.2067576               5.6262
    175                          0.2469199               6.7190
    ...                                ...                  ...
    296                          0.9753511              26.5407
------------------------------------------------------------------
               HL-Gap            0.2276976 Eh            6.1960 eV
------------------------------------------------------------------

Atomic charges and shell populations (in atomic units):
-----------------------------------------------------------------
     #    Z                q          p(s)       p(p)       p(d)
-----------------------------------------------------------------
     1    7 N      -0.368213      1.380756   3.987457
     2    6 C       0.018961      1.133781   2.847258
     3    6 C       0.428765      1.100956   2.470279
     4    8 O      -0.558866      1.855723   4.703144
     5    7 N      -0.319539      1.345975   3.973564
     6    6 C       0.005922      1.110327   2.883751
     7    6 C       0.432071      1.112589   2.455340
     8    6 C       0.005653      1.146359   2.847988
     9    8 O      -0.526158      1.851311   4.674846
    10    7 N      -0.323058      1.352724   3.970334
    11    6 C      -0.175929      1.155162   3.020768
    12    6 C       0.412876      1.117562   2.469562
    13    6 C      -0.241603      1.169786   3.071817
    14    6 C       0.010025      1.117066   2.872909
    15    8 O      -0.617772      1.861753   4.756019
    16    6 C       0.525296      1.076081   2.398623
    17    7 N      -0.560027      1.541086   4.018941
    18    6 C      -0.213947      1.155756   3.058191
    19    8 O      -0.703195      1.853714   4.849481
    20    8 O      -0.673813      1.852851   4.820962
    21    6 C       0.391013      1.098853   2.510134
    22    6 C       0.513220      1.106576   2.380203
    23    6 C      -0.007973      1.139189   2.868784
    24    8 O      -0.672876      1.850782   4.822094
    25    8 O      -0.525623      1.853174   4.672449
    26    8 O      -0.514121      1.818224   4.695898
    27    7 N      -0.309174      1.375428   3.933746
    28    6 C      -0.182339      1.163161   3.019178
    29    6 C       0.385541      1.101644   2.512815
    30    6 C      -0.145350      1.155467   2.989883
    31    6 C       0.024152      1.122647   2.853201
    32    8 O      -0.590374      1.866780   4.723594
    33    6 C      -0.214166      1.134124   3.080042
    34    7 N      -0.346934      1.362286   3.984649
    35    6 C      -0.188297      1.145740   3.042557
    36    6 C      -0.086090      1.159288   2.926802
    37    6 C       0.407707      1.120934   2.471359
    38    6 C      -0.114591      1.190178   2.924412
    39    7 N      -0.524809      1.524800   4.000009
    40    6 C      -0.027664      1.125891   2.901773
    41    8 O      -0.563396      1.853463   4.709933
    42   16 S      -0.245281      1.892200   4.292577   0.060504
    43    7 N      -0.411742      1.412773   3.998969
    44    6 C      -0.092845      1.112036   2.980810
    45    6 C      -0.196167      1.192884   3.003283
    46    6 C       0.412768      1.139124   2.448107
    47    6 C      -0.270662      1.168720   3.101942
    48    6 C      -0.178849      1.137301   3.041547
    49    8 O      -0.463822      1.857987   4.605835
    50    6 C      -0.239326      1.163371   3.075955
    51    6 C      -0.190889      1.148929   3.041960
    52    6 C      -0.180857      1.168179   3.012678
    53    6 C      -0.071716      1.157456   2.914260
    54    7 N      -0.418901      1.400783   4.018118
    55    6 C       0.293440      1.091587   2.614973
    56    7 N      -0.563135      1.584888   3.978248
    57    7 N      -0.449939      1.377294   4.072645
    58    6 C      -0.268141      1.172569   3.095573
    59    1 H       0.284390      0.715610
    60    1 H       0.100113      0.899887
    61    1 H       0.300403      0.699597
    62    1 H       0.143078      0.856922
    63    1 H       0.090002      0.909998
    64    1 H       0.279825      0.720175
    65    1 H       0.110331      0.889669
    66    1 H       0.120476      0.879524
    67    1 H       0.100718      0.899282
    68    1 H       0.089671      0.910329
    69    1 H       0.105101      0.894899
    70    1 H       0.387034      0.612966
    71    1 H       0.130817      0.869183
    72    1 H       0.125640      0.874360
    73    1 H       0.135015      0.864985
    74    1 H       0.278564      0.721436
    75    1 H       0.088692      0.911308
    76    1 H       0.091755      0.908245
    77    1 H       0.102912      0.897088
    78    1 H       0.091707      0.908293
    79    1 H       0.101603      0.898397
    80    1 H       0.116370      0.883630
    81    1 H       0.094124      0.905876
    82    1 H       0.265720      0.734280
    83    1 H       0.117558      0.882442
    84    1 H       0.136907      0.863093
    85    1 H       0.075705      0.924295
    86    1 H       0.056447      0.943553
    87    1 H       0.100991      0.899009
    88    1 H       0.102464      0.897536
    89    1 H       0.250369      0.749631
    90    1 H       0.210422      0.789578
    91    1 H       0.131997      0.868003
    92    1 H       0.247102      0.752898
    93    1 H       0.117119      0.882881
    94    1 H       0.095612      0.904388
    95    1 H       0.136607      0.863393
    96    1 H       0.102191      0.897809
    97    1 H       0.093221      0.906779
    98    1 H       0.086628      0.913372
    99    1 H       0.075403      0.924597
   100    1 H       0.085568      0.914432
   101    1 H       0.113109      0.886891
   102    1 H       0.071547      0.928453
   103    1 H       0.091618      0.908382
   104    1 H       0.089871      0.910129
   105    1 H       0.120162      0.879838
   106    1 H       0.108435      0.891565
   107    1 H       0.097892      0.902108
   108    1 H       0.118859      0.881141
   109    1 H       0.083497      0.916503
   110    1 H       0.096217      0.903783
   111    1 H       0.257436      0.742564
   112    1 H       0.224812      0.775188
   113    1 H       0.249525      0.750475
   114    1 H       0.246011      0.753989
   115    1 H       0.153641      0.846359
   116    1 H       0.079324      0.920676
   117    1 H       0.112439      0.887561
-----------------------------------------------------------------


Wiberg/Mayer (AO) data.
largest (>0.10) Wiberg bond orders for each atom

 ---------------------------------------------------------------------------
     #   Z sym  total        # sym  WBO       # sym  WBO       # sym  WBO
 ---------------------------------------------------------------------------
     1   7 N    3.246 --     7 C    1.166     2 C    0.950    59 N    0.886
                             9 C    0.149
     2   6 C    3.948 --    51 C    1.014     1 N    0.950    60 N    0.935
                             3 C    0.918
     3   6 C    3.867 --     4 C    1.638     5 N    1.235     2 C    0.918
     4   8 C    1.927 --     3 C    1.638     5 N    0.162
     5   7 N    3.342 --     3 C    1.235     6 C    0.982    61 N    0.874
                             4 C    0.162
     6   6 C    3.938 --    58 C    0.990     5 N    0.982    46 C    0.935
                            62 N    0.915
     7   6 C    3.839 --     9 C    1.698     1 N    1.166     8 C    0.901
     8   6 C    3.918 --    11 C    0.978    10 N    0.961    63 N    0.942
                             7 C    0.901
     9   8 C    1.982 --     7 C    1.698     1 N    0.149
    10   7 N    3.357 --    12 C    1.268     8 C    0.961    64 N    0.878
                            15 C    0.154
    11   6 C    3.945 --    13 C    1.014     8 C    0.978    66 N    0.943
                            65 N    0.942
    12   6 C    3.854 --    15 C    1.574    10 N    1.268    14 C    0.920
    13   6 C    3.948 --    11 C    1.014    67 N    0.962    68 N    0.961
                            16 C    0.868
    14   6 C    3.964 --    17 N    1.031    18 C    0.969    69 N    0.932
                            12 C    0.920
    15   8 C    1.838 --    12 C    1.574    10 N    0.154
    16   6 C    3.859 --    20 C    1.515    19 C    1.453    13 C    0.868
    17   7 N    2.889 --    21 C    1.433    14 C    1.031    24 C    0.185
    18   6 C    3.957 --    14 C    0.969    72 N    0.955    71 N    0.949
                            22 C    0.945
    19   8 C    1.754 --    16 C    1.453    20 C    0.194
    20   8 C    1.793 --    16 C    1.515    19 C    0.194
    21   6 C    3.895 --    24 C    1.485    17 N    1.433    23 C    0.902
    22   6 C    3.813 --    25 C    1.734    26 C    1.101    18 C    0.945
    23   6 C    3.896 --    28 C    0.992    73 N    0.941    27 N    0.923
                            21 C    0.902
    24   8 C    1.811 --    21 C    1.485    17 N    0.185
    25   8 C    1.974 --    22 C    1.734    26 C    0.152
    26   8 C    2.083 --    22 C    1.101    70 N    0.738    25 C    0.152
    27   7 N    3.395 --    29 C    1.349    23 C    0.923    74 N    0.866
                            32 C    0.174
    28   6 C    3.962 --    23 C    0.992    30 C    0.991    75 N    0.959
                            76 N    0.955
    29   6 C    3.897 --    32 C    1.550    27 N    1.349    31 C    0.934
    30   6 C    3.960 --    33 C    1.011    28 C    0.991    78 N    0.955
                            77 N    0.952
    31   6 C    3.928 --    35 C    0.993    34 N    0.949    29 C    0.934
                            79 N    0.925
    32   8 C    1.845 --    29 C    1.550    27 N    0.174
    33   6 C    3.970 --    36 C    1.014    30 C    1.011    81 N    0.959
                            80 N    0.949
    34   7 N    3.354 --    37 C    1.272    31 C    0.949    82 N    0.862
                            41 C    0.173
    35   6 C    3.955 --    38 C    1.006    31 C    0.993    83 N    0.949
                            84 N    0.945
    36   6 C    3.958 --    33 C    1.014    39 N    1.008    85 N    0.958
                            86 N    0.956
    37   6 C    3.862 --    41 C    1.625    34 N    1.272    40 C    0.876
    38   6 C    3.935 --    35 C    1.006    42 O    0.974    88 N    0.959
                            87 N    0.957
    39   7 N    2.921 --    36 C    1.008    90 N    0.945    89 N    0.904
    40   6 C    3.939 --    43 N    0.992    44 C    0.985    91 N    0.935
                            37 C    0.876
    41   8 C    1.922 --    37 C    1.625    34 N    0.173
    42  16 O    2.053 --    45 C    0.989    38 C    0.974
    43   7 N    3.214 --    46 C    1.039    40 C    0.992    92 N    0.891
                            49 C    0.141
    44   6 C    3.975 --    47 C    1.001    48 C    0.994    40 C    0.985
                            93 N    0.935
    45   6 C    3.918 --    42 O    0.989    94 N    0.971    96 N    0.970
                            95 N    0.962
    46   6 C    3.835 --    49 C    1.780    43 N    1.039     6 C    0.935
    47   6 C    3.959 --    44 C    1.001    97 N    0.973    98 N    0.966
                            99 N    0.965
    48   6 C    3.967 --    50 C    1.028    44 C    0.994   100 N    0.953
                           101 N    0.949
    49   8 C    2.039 --    46 C    1.780    43 N    0.141
    50   6 C    3.964 --    48 C    1.028   103 N    0.973   102 N    0.970
                           104 N    0.970
    51   6 C    3.963 --     2 C    1.014    52 C    0.983   105 N    0.954
                           106 N    0.950
    52   6 C    3.955 --    53 C    1.008    51 C    0.983   108 N    0.960
                           107 N    0.959
    53   6 C    3.927 --    52 C    1.008    54 N    0.965   110 N    0.959
                           109 N    0.953
    54   7 N    3.115 --    55 C    1.074    53 C    0.965   111 N    0.883
    55   6 C    3.936 --    56 N    1.696    57 N    1.138    54 N    1.074
    56   7 N    2.874 --    55 C    1.696   112 N    0.918    57 N    0.120
    57   7 N    3.145 --    55 C    1.138   114 N    0.916   113 N    0.910
                            56 N    0.120
    58   6 C    3.939 --     6 C    0.990   116 N    0.970   117 N    0.964
                           115 N    0.952
    59   1 N    0.919 --     1 N    0.886
    60   1 N    0.990 --     2 C    0.935
    61   1 N    0.910 --     5 N    0.874
    62   1 N    0.980 --     6 C    0.915
    63   1 N    0.992 --     8 C    0.942
    64   1 N    0.922 --    10 N    0.878
    65   1 N    0.988 --    11 C    0.942
    66   1 N    0.985 --    11 C    0.943
    67   1 N    0.990 --    13 C    0.962
    68   1 N    0.992 --    13 C    0.961
    69   1 N    0.989 --    14 C    0.932
    70   1 N    0.850 --    26 C    0.738
    71   1 N    0.983 --    18 C    0.949
    72   1 N    0.984 --    18 C    0.955
    73   1 N    0.982 --    23 C    0.941
    74   1 N    0.922 --    27 N    0.866
    75   1 N    0.992 --    28 C    0.959
    76   1 N    0.992 --    28 C    0.955
    77   1 N    0.989 --    30 C    0.952
    78   1 N    0.992 --    30 C    0.955
    79   1 N    0.990 --    31 C    0.925
    80   1 N    0.986 --    33 C    0.949
    81   1 N    0.991 --    33 C    0.959
    82   1 N    0.929 --    34 N    0.862
    83   1 N    0.986 --    35 C    0.949
    84   1 N    0.981 --    35 C    0.945
    85   1 N    0.994 --    36 C    0.958
    86   1 N    0.997 --    36 C    0.956
    87   1 N    0.990 --    38 C    0.957
    88   1 N    0.990 --    38 C    0.959
    89   1 N    0.937 --    39 N    0.904
    90   1 N    0.956 --    39 N    0.945
    91   1 N    0.983 --    40 C    0.935
    92   1 N    0.939 --    43 N    0.891
    93   1 N    0.986 --    44 C    0.935
    94   1 N    0.991 --    45 C    0.971
    95   1 N    0.981 --    45 C    0.962
    96   1 N    0.990 --    45 C    0.970
    97   1 N    0.991 --    47 C    0.973
    98   1 N    0.992 --    47 C    0.966
    99   1 N    0.994 --    47 C    0.965
   100   1 N    0.993 --    48 C    0.953
   101   1 N    0.987 --    48 C    0.949
   102   1 N    0.995 --    50 C    0.970
   103   1 N    0.992 --    50 C    0.973
   104   1 N    0.992 --    50 C    0.970
   105   1 N    0.986 --    51 C    0.954
   106   1 N    0.988 --    51 C    0.950
   107   1 N    0.990 --    52 C    0.959
   108   1 N    0.986 --    52 C    0.960
   109   1 N    0.993 --    53 C    0.953
   110   1 N    0.991 --    53 C    0.959
   111   1 N    0.934 --    54 N    0.883
   112   1 N    0.949 --    56 N    0.918
   113   1 N    0.938 --    57 N    0.910
   114   1 N    0.939 --    57 N    0.916
   115   1 N    0.976 --    58 C    0.952
   116   1 N    0.994 --    58 C    0.970
   117   1 N    0.987 --    58 C    0.964
 ---------------------------------------------------------------------------

Topologies differ in total number of bonds
Writing topology from bond orders to xtbtopo.mol

Atomic dipole moments (in atomic units):
---------------------------------------------------------
     #    Z                 x            y            z
---------------------------------------------------------
           total     2.954851    11.655910     1.497124
---------------------------------------------------------
         |total|    12.117457    30.799502 Debye


           -------------------------------------------------
          | TOTAL ENERGY            -3197.352438351715 Eh   |
          | GRADIENT NORM               0.412675050700 Eh/α |
           -------------------------------------------------

------------------------------------------------------------------------
 * finished run on 2026/05/23 at 12:52:17.402     
------------------------------------------------------------------------
 total:
 * wall-time:     0 d,  0 h,  0 min, 13.433 sec
 *  cpu-time:     0 d,  0 h,  0 min, 33.088 sec
 * ratio c/w:     2.463 speedup
 SCF:
 * wall-time:     0 d,  0 h,  0 min, 13.075 sec
 *  cpu-time:     0 d,  0 h,  0 min, 32.593 sec
 * ratio c/w:     2.493 speedup

normal termination of xtb
