      -----------------------------------------------------------      
     |                   =====================                   |     
     |                           x T B                           |     
     |                   =====================                   |     
     |                         S. Grimme                         |     
     |          Mulliken Center for Theoretical Chemistry        |     
     |                    University of Bonn                     |     
      -----------------------------------------------------------      

   * xtb version 6.7.1 (26dd68d) compiled by 'froitzheim@fs7' on 2026-05-14

   xtb is free software: you can redistribute it and/or modify it under
   the terms of the GNU Lesser General Public License as published by
   the Free Software Foundation, either version 3 of the License, or
   (at your option) any later version.
   
   xtb is distributed in the hope that it will be useful,
   but WITHOUT ANY WARRANTY; without even the implied warranty of
   MERCHANTABILITY or FITNESS FOR A PARTICULAR PURPOSE.  See the
   GNU Lesser General Public License for more details.
   
   Cite this work as:
   * C. Bannwarth, E. Caldeweyher, S. Ehlert, A. Hansen, P. Pracht,
     J. Seibert, S. Spicher, S. Grimme, WIREs Comput. Mol. Sci., 2020, 11,
     e01493. DOI: 10.1002/wcms.1493
   
   for g-xTB:
   * T. Froitzheim, M. Müller, A. Hansen, S. Grimme, ChemRxiv, 2025, preprint.
     DOI: 10.26434/chemrxiv-2025-bjxv
   for GFN2-xTB:
   * C. Bannwarth, S. Ehlert and S. Grimme., J. Chem. Theory Comput., 2019,
     15, 1652-1671. DOI: 10.1021/acs.jctc.8b01176
   for GFN1-xTB:
   * S. Grimme, C. Bannwarth, P. Shushkov, J. Chem. Theory Comput., 2017,
     13, 1989-2009. DOI: 10.1021/acs.jctc.7b00118
   for GFN0-xTB:
   * P. Pracht, E. Caldeweyher, S. Ehlert, S. Grimme, ChemRxiv, 2019, preprint.
     DOI: 10.26434/chemrxiv.8326202.v1
   for GFN-FF:
   * S. Spicher and S. Grimme, Angew. Chem. Int. Ed., 2020, 59, 15665-15673.
     DOI: 10.1002/anie.202004239
   
   for ALPB and GBSA implicit solvation:
   * S. Ehlert, M. Stahn, S. Spicher, S. Grimme, J. Chem. Theory Comput.,
     2021, 17, 4250-4261. DOI: 10.1021/acs.jctc.1c00471
   
   for ddCOSMO and CPCM-X implicit solvation:
   * M. Stahn, S. Ehlert, S. Grimme, J. Phys. Chem. A,
     2023, XX, XXXX-XXXX. DOI: 10.1021/acs.jpca.3c04382
   
   for DFT-D4:
   * E. Caldeweyher, C. Bannwarth and S. Grimme, J. Chem. Phys., 2017,
     147, 034112. DOI: 10.1063/1.4993215
   * E. Caldeweyher, S. Ehlert, A. Hansen, H. Neugebauer, S. Spicher,
     C. Bannwarth and S. Grimme, J. Chem. Phys., 2019, 150, 154122.
     DOI: 10.1063/1.5090222
   * E. Caldeweyher, J.-M. Mewes, S. Ehlert and S. Grimme, Phys. Chem. Chem. Phys.
     2020, 22, 8499-8512. DOI: 10.1039/D0CP00502A
   
   for sTDA-xTB:
   * S. Grimme and C. Bannwarth, J. Chem. Phys., 2016, 145, 054103.
     DOI: 10.1063/1.4959605
   
   in the mass-spec context:
   * V. Asgeirsson, C. Bauer and S. Grimme, Chem. Sci., 2017, 8, 4879.
     DOI: 10.1039/c7sc00601b
   * J. Koopman and S. Grimme, ACS Omega 2019, 4, 12, 15120-15133.
     DOI: 10.1021/acsomega.9b02011
   
   for metadynamics refer to:
   * S. Grimme, J. Chem. Theory Comput., 2019, 155, 2847-2862
     DOI: 10.1021/acs.jctc.9b00143
   
   for SPH calculations refer to:
   * S. Spicher and S. Grimme, J. Chem. Theory Comput., 2021, 17, 1701-1714
     DOI: 10.1021/acs.jctc.0c01306
   
   for ONIOM refer to:
   * C. Plett, A. Katbashev, S. Ehlert, S. Grimme, M. Bursch,
     Phys. Chem. Chem. Phys., 2023, 25, 17860-17868. DOI: 10.1039/D3CP02178E
   
   for DIPRO refer to:
   * J. Kohn, N. Gildemeister, S. Grimme, D. Fazzi, A. Hansen,
     J. Chem. Phys. 159, 144106 (2023). DOI: 10.1063/5.0167484
   
   for PTB refer to:
   * S. Grimme, M. Mueller, A. Hansen, J. Chem. Phys., 2023, 158, 124111.
     DOI: 10.1063/5.0137838
   
   with help from (in alphabetical order)
   P. Atkinson, C. Bannwarth, F. Bohle, G. Brandenburg, E. Caldeweyher,
   M. Checinski, S. Dohm, S. Ehlert, S. Ehrlich, M. Friede, T. Froitzheim,
   I. Gerasimov, C. Hölzer, A. Katbashev, J. Kohn, J. Koopman, C. Lavigne,
   S. Lehtola, F. März, M. Müller, F. Musil, H. Neugebauer, J. Pisarek,
   C. Plett, P. Pracht, F. Pultar, J. Seibert, P. Shushkov, S. Spicher,
   M. Stahn, M. Steiner, T. Strunk, J. Stückrath, T. Rose, and J. Unsleber
   
 * started run on 2026/05/23 at 12:43:38.082     
   ID    Z sym.   atoms
    1    7 N      1, 5, 10, 18, 29, 37, 45, 48
    2    6 C      2, 3, 6-8, 11-14, 16, 17, 19-25, 27, 28, 30-33, 35, 36,
                  38-43, 46, 47, 49-56
    3    8 O      4, 9, 15, 26, 34, 44
    4    1 H      57-114

           -------------------------------------------------
          |                Calculation Setup                |
           -------------------------------------------------

          program call               : /home/xchen/software/xtb-6.7.1-gxtb/bin/xtb /home/xchen/Test/benchmark/md_sampled/10_6_0573_0/snap_0097.xyz --charge 0 --gxtb --norestart
          coordinate file            : /home/xchen/Test/benchmark/md_sampled/10_6_0573_0/snap_0097.xyz
          omp threads                :                    48

core increment energy         -2.2833104851216E+03 Eh
dispersion energy              2.6810135752726E-02 Eh
molecular charge               0.0000000000000E+00 e
number of electrons            3.0199999999720E+02 e
number of unpaired electrons   0.0000000000000E+00 e
wavefunction                   restricted
integral cutoff                2.6907767250513E+01 bohr
energy convergence             1.0000000000000E-06 Eh
density convergence            2.0000000000000E-05 e

------------------------------------------------------------
  cycle        total energy    energy error   density error
------------------------------------------------------------
      1     -2523.642674500  -2.4035900E+02   0.0000000E+00
      2     -2524.001918461  -3.5924396E-01   1.8294669E-02
      3     -2524.219945525  -2.1802706E-01   1.4341479E-02
      4     -2524.648788298  -4.2884277E-01   1.1346100E-02
      5     -2524.658762533  -9.9742344E-03   1.1024803E-03
      6     -2524.659318520  -5.5598724E-04   1.5930301E-04
      7     -2524.659398926  -8.0406043E-05   8.4108281E-05
      8     -2524.659407100  -8.1740170E-06   1.8183679E-05
      9     -2524.659408172  -1.0721602E-06   5.4620759E-06
     10     -2524.659408280  -1.0777282E-07   1.3109307E-06
------------------------------------------------------------

electronic energy             -2.4137573329396E+02 Eh
total energy                  -2.5246594082798E+03 Eh

Post processing:
 | Mayer-Wiberg bond orders
 | Molecular Multipole Moments

 total:                                  20.049 sec
 - increment                              0.000 sec (  0%)
 - repulsion                              0.010 sec (  0%)
 - dispersion                             0.548 sec (  2%)
 - coulomb                                0.225 sec (  1%)
 - exchange                               0.011 sec (  0%)
 - hamiltonian                            0.616 sec (  3%)
 - acp                                    0.459 sec (  2%)
 - spin polarization                      0.000 sec (  0%)
 - post processing                        0.049 sec (  0%)
 - scc                                   15.829 sec ( 78%)
 - coulomb gradient                       0.098 sec (  0%)
 - dispersion gradient                    0.067 sec (  0%)
 - exchange gradient                      0.319 sec (  1%)
 - repulsion gradient                     0.010 sec (  0%)
 - acp gradient                           1.103 sec (  5%)
 - hamiltonian gradient                   0.667 sec (  3%)
 - gradient                               2.264 sec ( 11%)

         :::::::::::::::::::::::::::::::::::::::::::::::::::::
         ::                     SUMMARY                     ::
         :::::::::::::::::::::::::::::::::::::::::::::::::::::
         :: total energy           -2524.659408279807 Eh    ::
         :: gradient norm              0.412759261542 Eh/a0 ::
         :: HOMO-LUMO gap              8.886392703411 eV    ::
         ::.................................................::
         :: add. restraining           0.000000000000 Eh    ::
         :: total charge              -0.000000000000 e     ::
         :::::::::::::::::::::::::::::::::::::::::::::::::::::

           -------------------------------------------------
          |                Property Printout                |
           -------------------------------------------------

    * Orbital Energies and Occupations
------------------------------------------------------------------
      #    Occupation            Energy/Eh            Energy/eV
------------------------------------------------------------------
      1        2.0000           -1.3485311             -36.6954
    ...           ...                  ...                  ...
    139        2.0000           -0.3782568             -10.2929
    140        2.0000           -0.3742843             -10.1848
    141        2.0000           -0.3722220             -10.1287
    142        2.0000           -0.3678942             -10.0109
    143        2.0000           -0.3646704              -9.9232
    144        2.0000           -0.3627120              -9.8699
    145        2.0000           -0.3595191              -9.7830
    146        2.0000           -0.3581814              -9.7466
    147        2.0000           -0.3532638              -9.6128
    148        2.0000           -0.3517929              -9.5728
    149        2.0000           -0.3412756              -9.2866
    150        2.0000           -0.3367407              -9.1632
    151        2.0000           -0.3242204              -8.8225 (HOMO)
    152                          0.0023485               0.0639 (LUMO)
    153                          0.0035159               0.0957
    154                          0.0102821               0.2798
    155                          0.0134230               0.3653
    156                          0.0237012               0.6449
    157                          0.0243831               0.6635
    158                          0.0271140               0.7378
    159                          0.0415369               1.1303
    160                          0.0511099               1.3908
    161                          0.0521932               1.4202
    162                          0.0600882               1.6351
    ...                                ...                  ...
    282                          0.9712899              26.4301
------------------------------------------------------------------
               HL-Gap            0.3265689 Eh            8.8864 eV
------------------------------------------------------------------

Atomic charges and shell populations (in atomic units):
------------------------------------------------------
     #    Z                q          p(s)       p(p)
------------------------------------------------------
     1    7 N      -0.338483      1.392971   3.945512
     2    6 C       0.002689      1.110727   2.886585
     3    6 C       0.419593      1.085878   2.494529
     4    8 O      -0.540328      1.853401   4.686927
     5    7 N      -0.333033      1.353325   3.979709
     6    6 C       0.019228      1.149923   2.830849
     7    6 C       0.401052      1.119583   2.479364
     8    6 C       0.009414      1.106828   2.883759
     9    8 O      -0.532414      1.855042   4.677372
    10    7 N      -0.338400      1.374848   3.963552
    11    6 C      -0.167315      1.131300   3.036015
    12    6 C       0.432637      1.106136   2.461227
    13    6 C      -0.035589      1.118145   2.917444
    14    6 C       0.010010      1.128172   2.861818
    15    8 O      -0.517178      1.859284   4.657894
    16    6 C      -0.121174      1.164102   2.957072
    17    6 C      -0.100540      1.148518   2.952021
    18    7 N      -0.376329      1.380626   3.995702
    19    6 C      -0.161033      1.161023   3.000010
    20    6 C      -0.111318      1.148335   2.962983
    21    6 C      -0.086080      1.146656   2.939423
    22    6 C       0.401699      1.100389   2.497912
    23    6 C      -0.117430      1.138295   2.979136
    24    6 C      -0.096031      1.143201   2.952830
    25    6 C      -0.008839      1.099256   2.909583
    26    8 O      -0.492477      1.859450   4.633027
    27    6 C      -0.243840      1.167664   3.076176
    28    6 C      -0.273825      1.173915   3.099910
    29    7 N      -0.332271      1.343207   3.989063
    30    6 C      -0.159651      1.151581   3.008070
    31    6 C       0.420154      1.101262   2.478584
    32    6 C      -0.046919      1.131182   2.915737
    33    6 C       0.018380      1.114589   2.867031
    34    8 O      -0.526563      1.853388   4.673175
    35    6 C      -0.109857      1.149561   2.960296
    36    6 C      -0.092707      1.155762   2.936945
    37    7 N      -0.350028      1.368957   3.981071
    38    6 C      -0.167407      1.128843   3.038564
    39    6 C      -0.106828      1.138609   2.968219
    40    6 C      -0.096386      1.155460   2.940926
    41    6 C       0.417630      1.096713   2.485657
    42    6 C       0.039036      1.104116   2.856848
    43    6 C      -0.084526      1.158729   2.925797
    44    8 O      -0.532195      1.854221   4.677974
    45    7 N      -0.332855      1.577863   3.754993
    46    6 C      -0.067318      1.162245   2.905073
    47    6 C       0.097100      1.124485   2.778415
    48    7 N      -0.267024      1.368616   3.898408
    49    6 C      -0.096927      1.148539   2.948388
    50    6 C      -0.255574      1.190598   3.064976
    51    6 C      -0.200933      1.150609   3.050324
    52    6 C      -0.275172      1.178584   3.096588
    53    6 C      -0.110773      1.122235   2.988539
    54    6 C      -0.239400      1.169852   3.069548
    55    6 C      -0.178278      1.132244   3.046033
    56    6 C      -0.249880      1.165209   3.084671
    57    1 H       0.275523      0.724477
    58    1 H       0.134310      0.865690
    59    1 H       0.262434      0.737566
    60    1 H       0.142003      0.857997
    61    1 H       0.119214      0.880786
    62    1 H       0.253862      0.746138
    63    1 H       0.074247      0.925753
    64    1 H       0.119424      0.880576
    65    1 H       0.152895      0.847105
    66    1 H       0.095714      0.904286
    67    1 H       0.111866      0.888134
    68    1 H       0.256262      0.743738
    69    1 H       0.079353      0.920647
    70    1 H       0.119076      0.880924
    71    1 H       0.134515      0.865485
    72    1 H       0.102791      0.897209
    73    1 H       0.076603      0.923397
    74    1 H       0.108957      0.891043
    75    1 H       0.158085      0.841915
    76    1 H       0.096860      0.903140
    77    1 H       0.087156      0.912844
    78    1 H       0.108778      0.891222
    79    1 H       0.086581      0.913419
    80    1 H       0.099235      0.900765
    81    1 H       0.104602      0.895398
    82    1 H       0.260619      0.739381
    83    1 H       0.094047      0.905953
    84    1 H       0.090936      0.909064
    85    1 H       0.132263      0.867737
    86    1 H       0.071666      0.928334
    87    1 H       0.106969      0.893031
    88    1 H       0.299521      0.700479
    89    1 H       0.135429      0.864571
    90    1 H       0.108456      0.891544
    91    1 H       0.112943      0.887057
    92    1 H       0.121774      0.878226
    93    1 H       0.116432      0.883568
    94    1 H       0.136037      0.863963
    95    1 H       0.103870      0.896130
    96    1 H       0.263087      0.736913
    97    1 H       0.091664      0.908336
    98    1 H       0.084153      0.915847
    99    1 H       0.084184      0.915816
   100    1 H       0.077362      0.922638
   101    1 H       0.144098      0.855902
   102    1 H       0.090161      0.909839
   103    1 H       0.104079      0.895921
   104    1 H       0.086662      0.913338
   105    1 H       0.100142      0.899858
   106    1 H       0.115546      0.884454
   107    1 H       0.103385      0.896615
   108    1 H       0.090339      0.909661
   109    1 H       0.067861      0.932139
   110    1 H       0.094522      0.905478
   111    1 H       0.073407      0.926593
   112    1 H       0.085789      0.914211
   113    1 H       0.082703      0.917297
   114    1 H       0.092053      0.907947
------------------------------------------------------


Wiberg/Mayer (AO) data.
largest (>0.10) Wiberg bond orders for each atom

 ---------------------------------------------------------------------------
     #   Z sym  total        # sym  WBO       # sym  WBO       # sym  WBO
 ---------------------------------------------------------------------------
     1   7 N    3.273 --     7 C    1.202     2 C    0.974    57 O    0.869
                             9 C    0.139
     2   6 C    3.934 --     1 N    0.974    49 C    0.954     3 C    0.948
                            58 O    0.922
     3   6 C    3.888 --     4 C    1.633     5 N    1.237     2 C    0.948
     4   8 C    1.933 --     3 C    1.633     5 N    0.166
     5   7 N    3.340 --     3 C    1.237     6 C    0.953    59 O    0.888
                             4 C    0.166
     6   6 C    3.915 --    53 C    0.968     5 N    0.953    60 O    0.936
                            41 C    0.907
     7   6 C    3.861 --     9 C    1.663     1 N    1.202     8 C    0.893
     8   6 C    3.950 --    10 N    0.991    11 C    0.988    61 O    0.935
                             7 C    0.893
     9   8 C    1.947 --     7 C    1.663     1 N    0.139
    10   7 N    3.273 --    12 C    1.145     8 C    0.991    62 O    0.886
                            15 C    0.150
    11   6 C    3.969 --    13 C    1.011     8 C    0.988    63 O    0.947
                            64 O    0.945
    12   6 C    3.865 --    15 C    1.699    10 N    1.145    14 C    0.953
    13   6 C    3.981 --    17 C    1.443    16 C    1.371    11 C    1.011
                            24 C    0.113
    14   6 C    3.922 --    19 C    0.982    12 C    0.953    18 N    0.942
                            65 O    0.927
    15   8 C    1.957 --    12 C    1.699    10 N    0.150
    16   6 C    3.964 --    20 C    1.463    13 C    1.371    66 O    0.949
                            21 C    0.123
    17   6 C    3.967 --    13 C    1.443    21 C    1.406    67 O    0.951
                            20 C    0.118
    18   7 N    3.279 --    22 C    1.189    14 C    0.942    68 O    0.889
                            26 C    0.158
    19   6 C    3.954 --    23 C    0.987    14 C    0.982    69 O    0.962
                            70 O    0.953
    20   6 C    3.965 --    16 C    1.463    24 C    1.407    71 O    0.952
                            17 C    0.118
    21   6 C    3.968 --    24 C    1.460    17 C    1.406    72 O    0.953
                            16 C    0.123
    22   6 C    3.883 --    26 C    1.685    18 N    1.189    25 C    0.936
    23   6 C    3.974 --    27 C    1.008    28 C    0.995    19 C    0.987
                            73 O    0.953
    24   6 C    3.967 --    21 C    1.460    20 C    1.407    74 O    0.952
                            13 C    0.113
    25   6 C    3.941 --    29 N    0.985    30 C    0.974    22 C    0.936
                            75 O    0.911
    26   8 C    1.971 --    22 C    1.685    18 N    0.158
    27   6 C    3.954 --    23 C    1.008    76 O    0.976    77 O    0.970
                            78 O    0.964
    28   6 C    3.953 --    23 C    0.995    79 O    0.975    80 O    0.975
                            81 O    0.973
    29   7 N    3.315 --    31 C    1.180    25 C    0.985    82 O    0.881
                            34 C    0.161
    30   6 C    3.968 --    32 C    1.009    25 C    0.974    83 O    0.954
                            84 O    0.948
    31   6 C    3.870 --    34 C    1.680    29 N    1.180    33 C    0.944
    32   6 C    3.977 --    36 C    1.498    35 C    1.292    30 C    1.009
                            43 C    0.133
    33   6 C    3.930 --    38 C    0.989    37 N    0.959    31 C    0.944
                            85 O    0.927
    34   8 C    1.954 --    31 C    1.680    29 N    0.161
    35   6 C    3.970 --    39 C    1.567    32 C    1.292    86 O    0.939
                            40 C    0.111
    36   6 C    3.964 --    32 C    1.498    40 C    1.361    87 O    0.953
                            39 C    0.103
    37   7 N    3.301 --    41 C    1.233    33 C    0.959    88 O    0.856
                            44 C    0.150
    38   6 C    3.961 --    42 C    1.007    33 C    0.989    90 O    0.943
                            89 O    0.929
    39   6 C    3.971 --    35 C    1.567    43 C    1.323    91 O    0.939
                            36 C    0.103
    40   6 C    3.960 --    43 C    1.509    36 C    1.361    92 O    0.951
                            35 C    0.111
    41   6 C    3.875 --    44 C    1.661    37 N    1.233     6 C    0.907
    42   6 C    3.958 --    46 C    1.619    45 N    1.203    38 C    1.007
    43   6 C    3.961 --    40 C    1.509    39 C    1.323    93 O    0.952
                            32 C    0.133
    44   8 C    1.943 --    41 C    1.661    37 N    0.150
    45   7 N    3.006 --    47 C    1.586    42 C    1.203    48 N    0.113
    46   6 C    3.876 --    42 C    1.619    48 N    1.119    94 O    0.945
    47   6 C    3.922 --    45 N    1.586    48 N    1.253    95 O    0.940
    48   7 N    3.473 --    47 C    1.253    46 C    1.119    96 O    0.901
                            45 N    0.113
    49   6 C    3.968 --    51 C    1.013    50 C    0.983     2 C    0.954
                            97 O    0.951
    50   6 C    3.956 --    49 C    0.983    99 O    0.978   100 O    0.975
                            98 O    0.973
    51   6 C    3.954 --    49 C    1.013    52 C    0.997   102 O    0.964
                           101 O    0.941
    52   6 C    3.956 --    51 C    0.997   104 O    0.979   103 O    0.976
                           105 O    0.976
    53   6 C    3.974 --    54 C    1.008    55 C    1.004     6 C    0.968
                           106 O    0.931
    54   6 C    3.959 --    53 C    1.008   109 O    0.973   107 O    0.969
                           108 O    0.967
    55   6 C    3.973 --    56 C    1.021    53 C    1.004   110 O    0.954
                           111 O    0.954
    56   6 C    3.961 --    55 C    1.021   114 O    0.972   112 O    0.968
                           113 O    0.966
    57   1 O    0.924 --     1 N    0.869
    58   1 O    0.982 --     2 C    0.922
    59   1 O    0.931 --     5 N    0.888
    60   1 O    0.980 --     6 C    0.936
    61   1 O    0.986 --     8 C    0.935
    62   1 O    0.936 --    10 N    0.886
    63   1 O    0.994 --    11 C    0.947
    64   1 O    0.986 --    11 C    0.945
    65   1 O    0.977 --    14 C    0.927
    66   1 O    0.991 --    16 C    0.949
    67   1 O    0.987 --    17 C    0.951
    68   1 O    0.934 --    18 N    0.889
    69   1 O    0.994 --    19 C    0.962
    70   1 O    0.986 --    19 C    0.953
    71   1 O    0.982 --    20 C    0.952
    72   1 O    0.989 --    21 C    0.953
    73   1 O    0.994 --    23 C    0.953
    74   1 O    0.988 --    24 C    0.952
    75   1 O    0.975 --    25 C    0.911
    76   1 O    0.991 --    27 C    0.976
    77   1 O    0.992 --    27 C    0.970
    78   1 O    0.988 --    27 C    0.964
    79   1 O    0.993 --    28 C    0.975
    80   1 O    0.990 --    28 C    0.975
    81   1 O    0.989 --    28 C    0.973
    82   1 O    0.932 --    29 N    0.881
    83   1 O    0.991 --    30 C    0.954
    84   1 O    0.992 --    30 C    0.948
    85   1 O    0.983 --    33 C    0.927
    86   1 O    0.995 --    35 C    0.939
    87   1 O    0.989 --    36 C    0.953
    88   1 O    0.910 --    37 N    0.856
    89   1 O    0.982 --    38 C    0.929
    90   1 O    0.988 --    38 C    0.943
    91   1 O    0.987 --    39 C    0.939
    92   1 O    0.985 --    40 C    0.951
    93   1 O    0.986 --    43 C    0.952
    94   1 O    0.981 --    46 C    0.945
    95   1 O    0.989 --    47 C    0.940
    96   1 O    0.931 --    48 N    0.901
    97   1 O    0.992 --    49 C    0.951
    98   1 O    0.993 --    50 C    0.973
    99   1 O    0.993 --    50 C    0.978
   100   1 O    0.994 --    50 C    0.975
   101   1 O    0.979 --    51 C    0.941
   102   1 O    0.992 --    51 C    0.964
   103   1 O    0.989 --    52 C    0.976
   104   1 O    0.992 --    52 C    0.979
   105   1 O    0.990 --    52 C    0.976
   106   1 O    0.987 --    53 C    0.931
   107   1 O    0.989 --    54 C    0.969
   108   1 O    0.992 --    54 C    0.967
   109   1 O    0.995 --    54 C    0.973
   110   1 O    0.991 --    55 C    0.954
   111   1 O    0.995 --    55 C    0.954
   112   1 O    0.993 --    56 C    0.968
   113   1 O    0.993 --    56 C    0.966
   114   1 O    0.992 --    56 C    0.972
 ---------------------------------------------------------------------------

Topologies differ in total number of bonds
Writing topology from bond orders to xtbtopo.mol

Atomic dipole moments (in atomic units):
---------------------------------------------------------
     #    Z                 x            y            z
---------------------------------------------------------
           total     0.048031     3.702908    -2.888363
---------------------------------------------------------
         |total|     4.696433    11.937141 Debye


           -------------------------------------------------
          | TOTAL ENERGY            -2524.659408279807 Eh   |
          | GRADIENT NORM               0.412759261542 Eh/α |
           -------------------------------------------------

------------------------------------------------------------------------
 * finished run on 2026/05/23 at 12:43:59.086     
------------------------------------------------------------------------
 total:
 * wall-time:     0 d,  0 h,  0 min, 21.003 sec
 *  cpu-time:     0 d,  0 h,  0 min, 38.053 sec
 * ratio c/w:     1.812 speedup
 SCF:
 * wall-time:     0 d,  0 h,  0 min, 20.489 sec
 *  cpu-time:     0 d,  0 h,  0 min, 37.555 sec
 * ratio c/w:     1.833 speedup

normal termination of xtb
