      -----------------------------------------------------------      
     |                   =====================                   |     
     |                           x T B                           |     
     |                   =====================                   |     
     |                         S. Grimme                         |     
     |          Mulliken Center for Theoretical Chemistry        |     
     |                    University of Bonn                     |     
      -----------------------------------------------------------      

   * xtb version 6.7.1 (26dd68d) compiled by 'froitzheim@fs7' on 2026-05-14

   xtb is free software: you can redistribute it and/or modify it under
   the terms of the GNU Lesser General Public License as published by
   the Free Software Foundation, either version 3 of the License, or
   (at your option) any later version.
   
   xtb is distributed in the hope that it will be useful,
   but WITHOUT ANY WARRANTY; without even the implied warranty of
   MERCHANTABILITY or FITNESS FOR A PARTICULAR PURPOSE.  See the
   GNU Lesser General Public License for more details.
   
   Cite this work as:
   * C. Bannwarth, E. Caldeweyher, S. Ehlert, A. Hansen, P. Pracht,
     J. Seibert, S. Spicher, S. Grimme, WIREs Comput. Mol. Sci., 2020, 11,
     e01493. DOI: 10.1002/wcms.1493
   
   for g-xTB:
   * T. Froitzheim, M. Müller, A. Hansen, S. Grimme, ChemRxiv, 2025, preprint.
     DOI: 10.26434/chemrxiv-2025-bjxv
   for GFN2-xTB:
   * C. Bannwarth, S. Ehlert and S. Grimme., J. Chem. Theory Comput., 2019,
     15, 1652-1671. DOI: 10.1021/acs.jctc.8b01176
   for GFN1-xTB:
   * S. Grimme, C. Bannwarth, P. Shushkov, J. Chem. Theory Comput., 2017,
     13, 1989-2009. DOI: 10.1021/acs.jctc.7b00118
   for GFN0-xTB:
   * P. Pracht, E. Caldeweyher, S. Ehlert, S. Grimme, ChemRxiv, 2019, preprint.
     DOI: 10.26434/chemrxiv.8326202.v1
   for GFN-FF:
   * S. Spicher and S. Grimme, Angew. Chem. Int. Ed., 2020, 59, 15665-15673.
     DOI: 10.1002/anie.202004239
   
   for ALPB and GBSA implicit solvation:
   * S. Ehlert, M. Stahn, S. Spicher, S. Grimme, J. Chem. Theory Comput.,
     2021, 17, 4250-4261. DOI: 10.1021/acs.jctc.1c00471
   
   for ddCOSMO and CPCM-X implicit solvation:
   * M. Stahn, S. Ehlert, S. Grimme, J. Phys. Chem. A,
     2023, XX, XXXX-XXXX. DOI: 10.1021/acs.jpca.3c04382
   
   for DFT-D4:
   * E. Caldeweyher, C. Bannwarth and S. Grimme, J. Chem. Phys., 2017,
     147, 034112. DOI: 10.1063/1.4993215
   * E. Caldeweyher, S. Ehlert, A. Hansen, H. Neugebauer, S. Spicher,
     C. Bannwarth and S. Grimme, J. Chem. Phys., 2019, 150, 154122.
     DOI: 10.1063/1.5090222
   * E. Caldeweyher, J.-M. Mewes, S. Ehlert and S. Grimme, Phys. Chem. Chem. Phys.
     2020, 22, 8499-8512. DOI: 10.1039/D0CP00502A
   
   for sTDA-xTB:
   * S. Grimme and C. Bannwarth, J. Chem. Phys., 2016, 145, 054103.
     DOI: 10.1063/1.4959605
   
   in the mass-spec context:
   * V. Asgeirsson, C. Bauer and S. Grimme, Chem. Sci., 2017, 8, 4879.
     DOI: 10.1039/c7sc00601b
   * J. Koopman and S. Grimme, ACS Omega 2019, 4, 12, 15120-15133.
     DOI: 10.1021/acsomega.9b02011
   
   for metadynamics refer to:
   * S. Grimme, J. Chem. Theory Comput., 2019, 155, 2847-2862
     DOI: 10.1021/acs.jctc.9b00143
   
   for SPH calculations refer to:
   * S. Spicher and S. Grimme, J. Chem. Theory Comput., 2021, 17, 1701-1714
     DOI: 10.1021/acs.jctc.0c01306
   
   for ONIOM refer to:
   * C. Plett, A. Katbashev, S. Ehlert, S. Grimme, M. Bursch,
     Phys. Chem. Chem. Phys., 2023, 25, 17860-17868. DOI: 10.1039/D3CP02178E
   
   for DIPRO refer to:
   * J. Kohn, N. Gildemeister, S. Grimme, D. Fazzi, A. Hansen,
     J. Chem. Phys. 159, 144106 (2023). DOI: 10.1063/5.0167484
   
   for PTB refer to:
   * S. Grimme, M. Mueller, A. Hansen, J. Chem. Phys., 2023, 158, 124111.
     DOI: 10.1063/5.0137838
   
   with help from (in alphabetical order)
   P. Atkinson, C. Bannwarth, F. Bohle, G. Brandenburg, E. Caldeweyher,
   M. Checinski, S. Dohm, S. Ehlert, S. Ehrlich, M. Friede, T. Froitzheim,
   I. Gerasimov, C. Hölzer, A. Katbashev, J. Kohn, J. Koopman, C. Lavigne,
   S. Lehtola, F. März, M. Müller, F. Musil, H. Neugebauer, J. Pisarek,
   C. Plett, P. Pracht, F. Pultar, J. Seibert, P. Shushkov, S. Spicher,
   M. Stahn, M. Steiner, T. Strunk, J. Stückrath, T. Rose, and J. Unsleber
   
 * started run on 2026/05/23 at 12:42:16.071     
   ID    Z sym.   atoms
    1    7 N      1, 5, 10, 17, 23, 25, 28, 34, 41, 46, 50
    2    6 C      2, 3, 6-8, 11-15, 18-21, 24, 26, 27, 29-32, 35-38, 40,
                  42-45, 48, 49, 51-53
    3    8 O      4, 9, 16, 22, 33, 39, 47
    4    1 H      54-110

           -------------------------------------------------
          |                Calculation Setup                |
           -------------------------------------------------

          program call               : /home/xchen/software/xtb-6.7.1-gxtb/bin/xtb /home/xchen/Test/benchmark/md_sampled/07_7_0083_0/snap_0088.xyz --charge 0 --gxtb --norestart
          coordinate file            : /home/xchen/Test/benchmark/md_sampled/07_7_0083_0/snap_0088.xyz
          omp threads                :                    48

core increment energy         -2.2595336125909E+03 Eh
dispersion energy              2.7365753070926E-02 Eh
molecular charge               0.0000000000000E+00 e
number of electrons            2.9399999999735E+02 e
number of unpaired electrons   0.0000000000000E+00 e
wavefunction                   restricted
integral cutoff                2.6907767250513E+01 bohr
energy convergence             1.0000000000000E-06 Eh
density convergence            2.0000000000000E-05 e

------------------------------------------------------------
  cycle        total energy    energy error   density error
------------------------------------------------------------
      1     -2495.628528823  -2.3612228E+02   0.0000000E+00
      2     -2496.034601390  -4.0607257E-01   1.9007274E-02
      3     -2496.287123125  -2.5252173E-01   1.5070905E-02
      4     -2496.804519874  -5.1739675E-01   1.1998965E-02
      5     -2496.815787645  -1.1267770E-02   8.8051418E-04
      6     -2496.816521003  -7.3335808E-04   1.6157095E-04
      7     -2496.816597387  -7.6384226E-05   5.2381122E-05
      8     -2496.816602872  -5.4853588E-06   1.3169346E-05
      9     -2496.816603609  -7.3662468E-07   3.0110526E-06
------------------------------------------------------------

electronic energy             -2.3731035677107E+02 Eh
total energy                  -2.4968166036089E+03 Eh

Post processing:
 | Mayer-Wiberg bond orders
 | Molecular Multipole Moments

 total:                                  21.493 sec
 - increment                              0.000 sec (  0%)
 - repulsion                              0.012 sec (  0%)
 - dispersion                             0.561 sec (  2%)
 - coulomb                                0.378 sec (  1%)
 - exchange                               0.013 sec (  0%)
 - hamiltonian                            0.570 sec (  2%)
 - acp                                    0.557 sec (  2%)
 - spin polarization                      0.000 sec (  0%)
 - post processing                        0.181 sec (  0%)
 - scc                                   17.585 sec ( 81%)
 - coulomb gradient                       0.128 sec (  0%)
 - dispersion gradient                    0.467 sec (  2%)
 - exchange gradient                      0.169 sec (  0%)
 - repulsion gradient                     0.006 sec (  0%)
 - acp gradient                           0.483 sec (  2%)
 - hamiltonian gradient                   0.556 sec (  2%)
 - gradient                               1.809 sec (  8%)

         :::::::::::::::::::::::::::::::::::::::::::::::::::::
         ::                     SUMMARY                     ::
         :::::::::::::::::::::::::::::::::::::::::::::::::::::
         :: total energy           -2496.816603608903 Eh    ::
         :: gradient norm              0.470517662809 Eh/a0 ::
         :: HOMO-LUMO gap              9.247036748582 eV    ::
         ::.................................................::
         :: add. restraining           0.000000000000 Eh    ::
         :: total charge              -0.000000000000 e     ::
         :::::::::::::::::::::::::::::::::::::::::::::::::::::

           -------------------------------------------------
          |                Property Printout                |
           -------------------------------------------------

    * Orbital Energies and Occupations
------------------------------------------------------------------
      #    Occupation            Energy/Eh            Energy/eV
------------------------------------------------------------------
      1        2.0000           -1.3508731             -36.7591
    ...           ...                  ...                  ...
    135        2.0000           -0.3673546              -9.9962
    136        2.0000           -0.3659754              -9.9587
    137        2.0000           -0.3641175              -9.9081
    138        2.0000           -0.3628971              -9.8749
    139        2.0000           -0.3583357              -9.7508
    140        2.0000           -0.3553249              -9.6689
    141        2.0000           -0.3521950              -9.5837
    142        2.0000           -0.3517048              -9.5704
    143        2.0000           -0.3413451              -9.2885
    144        2.0000           -0.3386432              -9.2150
    145        2.0000           -0.3312892              -9.0148
    146        2.0000           -0.3241811              -8.8214
    147        2.0000           -0.3182422              -8.6598 (HOMO)
    148                          0.0215801               0.5872 (LUMO)
    149                          0.0257497               0.7007
    150                          0.0295822               0.8050
    151                          0.0361545               0.9838
    152                          0.0431493               1.1742
    153                          0.0516191               1.4046
    154                          0.0543043               1.4777
    155                          0.0607120               1.6521
    156                          0.1061718               2.8891
    157                          0.1490350               4.0554
    158                          0.1544582               4.2030
    ...                                ...                  ...
    269                          0.8183791              22.2692
------------------------------------------------------------------
               HL-Gap            0.3398223 Eh            9.2470 eV
------------------------------------------------------------------

Atomic charges and shell populations (in atomic units):
------------------------------------------------------
     #    Z                q          p(s)       p(p)
------------------------------------------------------
     1    7 N      -0.360417      1.351820   4.008597
     2    6 C      -0.079049      1.152787   2.926262
     3    6 C       0.426886      1.091918   2.481196
     4    8 O      -0.489519      1.846781   4.642738
     5    7 N      -0.340652      1.357932   3.982720
     6    6 C      -0.000472      1.137571   2.862901
     7    6 C       0.420767      1.110916   2.468318
     8    6 C      -0.005488      1.139659   2.865829
     9    8 O      -0.513297      1.852315   4.660982
    10    7 N      -0.293792      1.353421   3.940371
    11    6 C      -0.183915      1.141558   3.042357
    12    6 C      -0.056535      1.160650   2.895886
    13    6 C       0.424358      1.098425   2.477216
    14    6 C      -0.185365      1.168056   3.017309
    15    6 C       0.001896      1.112173   2.885931
    16    8 O      -0.491309      1.846454   4.644855
    17    7 N      -0.328124      1.354200   3.973924
    18    6 C      -0.148028      1.138781   3.009247
    19    6 C       0.431978      1.096640   2.471382
    20    6 C       0.037321      1.102927   2.859752
    21    6 C      -0.001179      1.134491   2.866688
    22    8 O      -0.519353      1.850203   4.669150
    23    7 N      -0.306400      1.560407   3.745993
    24    6 C      -0.080455      1.153750   2.926705
    25    7 N      -0.236007      1.342916   3.893090
    26    6 C      -0.184604      1.139930   3.044674
    27    6 C       0.075667      1.137695   2.786638
    28    7 N      -0.278277      1.396782   3.881495
    29    6 C      -0.061080      1.139459   2.921621
    30    6 C       0.430930      1.082659   2.486411
    31    6 C      -0.175677      1.154593   3.021084
    32    6 C       0.001271      1.115285   2.883444
    33    8 O      -0.547324      1.851181   4.696142
    34    7 N      -0.323740      1.368088   3.955652
    35    6 C      -0.175228      1.152341   3.022887
    36    6 C       0.411086      1.102971   2.485943
    37    6 C      -0.207349      1.149094   3.058256
    38    6 C      -0.015504      1.130647   2.884856
    39    8 O      -0.548246      1.853517   4.694729
    40    6 C      -0.172007      1.163407   3.008600
    41    7 N      -0.332424      1.356576   3.975848
    42    6 C      -0.169231      1.147147   3.022083
    43    6 C      -0.107909      1.130782   2.977127
    44    6 C       0.400821      1.092084   2.507096
    45    6 C      -0.192139      1.178087   3.014052
    46    7 N      -0.528462      1.416193   4.112269
    47    8 O      -0.529712      1.856308   4.673404
    48    6 C      -0.202783      1.178946   3.023838
    49    6 C      -0.104988      1.140427   2.964561
    50    7 N      -0.514065      1.488920   4.025146
    51    6 C      -0.137470      1.161030   2.976441
    52    6 C      -0.262364      1.158444   3.103920
    53    6 C      -0.239740      1.182429   3.057310
    54    1 H       0.269805      0.730195
    55    1 H       0.160339      0.839661
    56    1 H       0.102191      0.897809
    57    1 H       0.250156      0.749844
    58    1 H       0.111762      0.888238
    59    1 H       0.122836      0.877164
    60    1 H       0.107495      0.892505
    61    1 H       0.102154      0.897846
    62    1 H       0.132076      0.867924
    63    1 H       0.076833      0.923167
    64    1 H       0.107637      0.892363
    65    1 H       0.109766      0.890234
    66    1 H       0.117724      0.882276
    67    1 H       0.279440      0.720560
    68    1 H       0.116057      0.883943
    69    1 H       0.132263      0.867737
    70    1 H       0.120986      0.879014
    71    1 H       0.115726      0.884274
    72    1 H       0.117089      0.882911
    73    1 H       0.119226      0.880774
    74    1 H       0.131276      0.868724
    75    1 H       0.253462      0.746538
    76    1 H       0.090781      0.909219
    77    1 H       0.100588      0.899412
    78    1 H       0.128055      0.871945
    79    1 H       0.090557      0.909443
    80    1 H       0.136978      0.863022
    81    1 H       0.281940      0.718060
    82    1 H       0.086460      0.913540
    83    1 H       0.109717      0.890283
    84    1 H       0.102332      0.897668
    85    1 H       0.105023      0.894977
    86    1 H       0.154743      0.845257
    87    1 H       0.076931      0.923069
    88    1 H       0.100491      0.899509
    89    1 H       0.257968      0.742032
    90    1 H       0.137505      0.862495
    91    1 H       0.082113      0.917887
    92    1 H       0.107706      0.892294
    93    1 H       0.106916      0.893084
    94    1 H       0.109015      0.890985
    95    1 H       0.088104      0.911896
    96    1 H       0.223546      0.776454
    97    1 H       0.213136      0.786864
    98    1 H       0.114354      0.885646
    99    1 H       0.083370      0.916630
   100    1 H       0.086440      0.913560
   101    1 H       0.109473      0.890527
   102    1 H       0.225561      0.774439
   103    1 H       0.209273      0.790727
   104    1 H       0.081949      0.918051
   105    1 H       0.128057      0.871943
   106    1 H       0.090619      0.909381
   107    1 H       0.098221      0.901779
   108    1 H       0.107094      0.892906
   109    1 H       0.088572      0.911428
   110    1 H       0.096808      0.903192
------------------------------------------------------


Wiberg/Mayer (AO) data.
largest (>0.10) Wiberg bond orders for each atom

 ---------------------------------------------------------------------------
     #   Z sym  total        # sym  WBO       # sym  WBO       # sym  WBO
 ---------------------------------------------------------------------------
     1   7 N    3.309 --     7 C    1.215     2 C    0.962    54 O    0.890
                             9 C    0.158
     2   6 C    3.911 --     1 N    0.962    56 O    0.959    55 O    0.940
                             3 C    0.923
     3   6 C    3.872 --     4 C    1.707     5 N    1.184     2 C    0.923
     4   8 C    2.024 --     3 C    1.707     5 N    0.170
     5   7 N    3.314 --     3 C    1.184     6 C    0.966    57 O    0.907
                             4 C    0.170
     6   6 C    3.937 --     5 N    0.966    51 C    0.959    58 O    0.938
                            44 C    0.935
     7   6 C    3.857 --     9 C    1.688     1 N    1.215     8 C    0.870
     8   6 C    3.926 --    11 C    0.988    10 N    0.965    59 O    0.938
                             7 C    0.870
     9   8 C    1.981 --     7 C    1.688     1 N    0.158
    10   7 N    3.318 --    13 C    1.126     8 C    0.965    12 C    0.957
                            16 C    0.144
    11   6 C    3.965 --    14 C    1.015     8 C    0.988    60 O    0.958
                            61 O    0.954
    12   6 C    3.916 --    14 C    0.981    63 O    0.959    10 N    0.957
                            62 O    0.956
    13   6 C    3.852 --    16 C    1.739    10 N    1.126    15 C    0.900
    14   6 C    3.958 --    11 C    1.015    12 C    0.981    64 O    0.962
                            65 O    0.960
    15   6 C    3.942 --    17 N    0.993    18 C    0.975    66 O    0.933
                            13 C    0.900
    16   8 C    2.019 --    13 C    1.739    10 N    0.144
    17   7 N    3.336 --    19 C    1.199    15 C    0.993    67 O    0.874
                            22 C    0.163
    18   6 C    3.957 --    20 C    1.019    15 C    0.975    69 O    0.939
                            68 O    0.937
    19   6 C    3.864 --    22 C    1.693    17 N    1.199    21 C    0.901
    20   6 C    3.960 --    24 C    1.602    23 N    1.203    18 C    1.019
    21   6 C    3.924 --    26 C    1.005    25 N    0.937    70 O    0.922
                            19 C    0.901
    22   8 C    1.979 --    19 C    1.693    17 N    0.163
    23   7 N    3.018 --    27 C    1.622    20 C    1.203
    24   6 C    3.892 --    20 C    1.602    28 N    1.142    71 O    0.948
                            27 C    0.108
    25   7 N    3.407 --    30 C    1.218    29 C    0.964    21 C    0.937
                            33 C    0.163
    26   6 C    3.959 --    21 C    1.005    31 C    1.003    73 O    0.955
                            72 O    0.946
    27   6 C    3.912 --    23 N    1.622    28 N    1.190    74 O    0.943
                            24 C    0.108
    28   7 N    3.424 --    27 C    1.190    24 C    1.142    75 O    0.902
    29   6 C    3.921 --    31 C    0.993    25 N    0.964    77 O    0.954
                            76 O    0.952
    30   6 C    3.881 --    33 C    1.637    25 N    1.218    32 C    0.954
    31   6 C    3.959 --    26 C    1.003    29 C    0.993    79 O    0.961
                            78 O    0.956
    32   6 C    3.929 --    35 C    0.973    30 C    0.954    80 O    0.941
                            34 N    0.931
    33   8 C    1.937 --    30 C    1.637    25 N    0.163
    34   7 N    3.345 --    36 C    1.273    32 C    0.931    81 O    0.862
                            39 C    0.169
    35   6 C    3.961 --    37 C    1.024    32 C    0.973    82 O    0.958
                            83 O    0.948
    36   6 C    3.874 --    39 C    1.642    34 N    1.273    38 C    0.888
    37   6 C    3.963 --    35 C    1.024    40 C    0.980    84 O    0.960
                            85 O    0.958
    38   6 C    3.912 --    42 C    0.974    41 N    0.963    86 O    0.938
                            36 C    0.888
    39   8 C    1.933 --    36 C    1.642    34 N    0.169
    40   6 C    3.962 --    43 C    1.003    37 C    0.980    87 O    0.964
                            88 O    0.959
    41   7 N    3.361 --    44 C    1.239    38 C    0.963    89 O    0.879
                            47 C    0.169
    42   6 C    3.959 --    45 C    1.020    38 C    0.974    91 O    0.958
                            90 O    0.948
    43   6 C    3.948 --    46 N    1.010    40 C    1.003    93 O    0.958
                            92 O    0.955
    44   6 C    3.892 --    47 C    1.642    41 N    1.239     6 C    0.935
    45   6 C    3.950 --    42 C    1.020    48 C    0.967    95 O    0.965
                            94 O    0.952
    46   7 N    2.931 --    43 C    1.010    97 O    0.937    96 O    0.931
    47   8 C    1.931 --    44 C    1.642    41 N    0.169
    48   6 C    3.957 --    49 C    1.008    45 C    0.967    99 O    0.965
                            98 O    0.964
    49   6 C    3.951 --    50 N    1.010    48 C    1.008   100 O    0.960
                           101 O    0.956
    50   7 N    2.950 --    49 C    1.010   103 O    0.944   102 O    0.937
    51   6 C    3.964 --    52 C    1.018    53 C    0.988     6 C    0.959
                           104 O    0.935
    52   6 C    3.952 --    51 C    1.018   107 O    0.969   105 O    0.962
                           106 O    0.953
    53   6 C    3.952 --    51 C    0.988   109 O    0.978   110 O    0.974
                           108 O    0.971
    54   1 O    0.927 --     1 N    0.890
    55   1 O    0.974 --     2 C    0.940
    56   1 O    0.990 --     2 C    0.959
    57   1 O    0.937 --     5 N    0.907
    58   1 O    0.988 --     6 C    0.938
    59   1 O    0.985 --     8 C    0.938
    60   1 O    0.988 --    11 C    0.958
    61   1 O    0.990 --    11 C    0.954
    62   1 O    0.983 --    12 C    0.956
    63   1 O    0.994 --    12 C    0.959
    64   1 O    0.988 --    14 C    0.962
    65   1 O    0.988 --    14 C    0.960
    66   1 O    0.986 --    15 C    0.933
    67   1 O    0.922 --    17 N    0.874
    68   1 O    0.987 --    18 C    0.937
    69   1 O    0.983 --    18 C    0.939
    70   1 O    0.985 --    21 C    0.922
    71   1 O    0.987 --    24 C    0.948
    72   1 O    0.986 --    26 C    0.946
    73   1 O    0.986 --    26 C    0.955
    74   1 O    0.983 --    27 C    0.943
    75   1 O    0.936 --    28 N    0.902
    76   1 O    0.992 --    29 C    0.952
    77   1 O    0.990 --    29 C    0.954
    78   1 O    0.984 --    31 C    0.956
    79   1 O    0.992 --    31 C    0.961
    80   1 O    0.981 --    32 C    0.941
    81   1 O    0.921 --    34 N    0.862
    82   1 O    0.993 --    35 C    0.958
    83   1 O    0.988 --    35 C    0.948
    84   1 O    0.990 --    37 C    0.960
    85   1 O    0.989 --    37 C    0.958
    86   1 O    0.976 --    38 C    0.938
    87   1 O    0.994 --    40 C    0.964
    88   1 O    0.990 --    40 C    0.959
    89   1 O    0.933 --    41 N    0.879
    90   1 O    0.981 --    42 C    0.948
    91   1 O    0.993 --    42 C    0.958
    92   1 O    0.988 --    43 C    0.955
    93   1 O    0.989 --    43 C    0.958
    94   1 O    0.988 --    45 C    0.952
    95   1 O    0.992 --    45 C    0.965
    96   1 O    0.950 --    46 N    0.931
    97   1 O    0.955 --    46 N    0.937
    98   1 O    0.987 --    48 C    0.964
    99   1 O    0.993 --    48 C    0.965
   100   1 O    0.993 --    49 C    0.960
   101   1 O    0.988 --    49 C    0.956
   102   1 O    0.949 --    50 N    0.937
   103   1 O    0.956 --    50 N    0.944
   104   1 O    0.993 --    51 C    0.935
   105   1 O    0.984 --    52 C    0.962
   106   1 O    0.992 --    52 C    0.953
   107   1 O    0.990 --    52 C    0.969
   108   1 O    0.989 --    53 C    0.971
   109   1 O    0.992 --    53 C    0.978
   110   1 O    0.991 --    53 C    0.974
 ---------------------------------------------------------------------------

Topologies differ in total number of bonds
Writing topology from bond orders to xtbtopo.mol

Atomic dipole moments (in atomic units):
---------------------------------------------------------
     #    Z                 x            y            z
---------------------------------------------------------
           total     0.863783    -5.125821     1.481466
---------------------------------------------------------
         |total|     5.405081    13.738345 Debye


           -------------------------------------------------
          | TOTAL ENERGY            -2496.816603608903 Eh   |
          | GRADIENT NORM               0.470517662809 Eh/α |
           -------------------------------------------------

------------------------------------------------------------------------
 * finished run on 2026/05/23 at 12:42:38.794     
------------------------------------------------------------------------
 total:
 * wall-time:     0 d,  0 h,  0 min, 22.722 sec
 *  cpu-time:     0 d,  0 h,  0 min, 33.624 sec
 * ratio c/w:     1.480 speedup
 SCF:
 * wall-time:     0 d,  0 h,  0 min, 22.062 sec
 *  cpu-time:     0 d,  0 h,  0 min, 33.169 sec
 * ratio c/w:     1.503 speedup

normal termination of xtb
