      -----------------------------------------------------------      
     |                   =====================                   |     
     |                           x T B                           |     
     |                   =====================                   |     
     |                         S. Grimme                         |     
     |          Mulliken Center for Theoretical Chemistry        |     
     |                    University of Bonn                     |     
      -----------------------------------------------------------      

   * xtb version 6.7.1 (edcfbbe) compiled by 'albert@albert-system' on 2024-07-22

   xtb is free software: you can redistribute it and/or modify it under
   the terms of the GNU Lesser General Public License as published by
   the Free Software Foundation, either version 3 of the License, or
   (at your option) any later version.
   
   xtb is distributed in the hope that it will be useful,
   but WITHOUT ANY WARRANTY; without even the implied warranty of
   MERCHANTABILITY or FITNESS FOR A PARTICULAR PURPOSE.  See the
   GNU Lesser General Public License for more details.
   
   Cite this work as:
   * C. Bannwarth, E. Caldeweyher, S. Ehlert, A. Hansen, P. Pracht,
     J. Seibert, S. Spicher, S. Grimme, WIREs Comput. Mol. Sci., 2020, 11,
     e01493. DOI: 10.1002/wcms.1493
   
   for GFN2-xTB:
   * C. Bannwarth, S. Ehlert and S. Grimme., J. Chem. Theory Comput., 2019,
     15, 1652-1671. DOI: 10.1021/acs.jctc.8b01176
   for GFN1-xTB:
   * S. Grimme, C. Bannwarth, P. Shushkov, J. Chem. Theory Comput., 2017,
     13, 1989-2009. DOI: 10.1021/acs.jctc.7b00118
   for GFN0-xTB:
   * P. Pracht, E. Caldeweyher, S. Ehlert, S. Grimme, ChemRxiv, 2019, preprint.
     DOI: 10.26434/chemrxiv.8326202.v1
   for GFN-FF:
   * S. Spicher and S. Grimme, Angew. Chem. Int. Ed., 2020, 59, 15665-15673.
     DOI: 10.1002/anie.202004239
   
   for ALPB and GBSA implicit solvation:
   * S. Ehlert, M. Stahn, S. Spicher, S. Grimme, J. Chem. Theory Comput.,
     2021, 17, 4250-4261. DOI: 10.1021/acs.jctc.1c00471
   
   for ddCOSMO and CPCM-X implicit solvation:
   * M. Stahn, S. Ehlert, S. Grimme, J. Phys. Chem. A,
     2023, XX, XXXX-XXXX. DOI: 10.1021/acs.jpca.3c04382
   
   for DFT-D4:
   * E. Caldeweyher, C. Bannwarth and S. Grimme, J. Chem. Phys., 2017,
     147, 034112. DOI: 10.1063/1.4993215
   * E. Caldeweyher, S. Ehlert, A. Hansen, H. Neugebauer, S. Spicher,
     C. Bannwarth and S. Grimme, J. Chem. Phys., 2019, 150, 154122.
     DOI: 10.1063/1.5090222
   * E. Caldeweyher, J.-M. Mewes, S. Ehlert and S. Grimme, Phys. Chem. Chem. Phys.
     2020, 22, 8499-8512. DOI: 10.1039/D0CP00502A
   
   for sTDA-xTB:
   * S. Grimme and C. Bannwarth, J. Chem. Phys., 2016, 145, 054103.
     DOI: 10.1063/1.4959605
   
   in the mass-spec context:
   * V. Asgeirsson, C. Bauer and S. Grimme, Chem. Sci., 2017, 8, 4879.
     DOI: 10.1039/c7sc00601b
   * J. Koopman and S. Grimme, ACS Omega 2019, 4, 12, 15120-15133.
     DOI: 10.1021/acsomega.9b02011
   
   for metadynamics refer to:
   * S. Grimme, J. Chem. Theory Comput., 2019, 155, 2847-2862
     DOI: 10.1021/acs.jctc.9b00143
   
   for SPH calculations refer to:
   * S. Spicher and S. Grimme, J. Chem. Theory Comput., 2021, 17, 1701-1714
     DOI: 10.1021/acs.jctc.0c01306
   
   for ONIOM refer to:
   * C. Plett, A. Katbashev, S. Ehlert, S. Grimme, M. Bursch,
     Phys. Chem. Chem. Phys., 2023, 25, 17860-17868. DOI: 10.1039/D3CP02178E
   
   for DIPRO refer to:
   * J. Kohn, N. Gildemeister, S. Grimme, D. Fazzi, A. Hansen,
     J. Chem. Phys., 2023, just accepted.
   
   for PTB refer to:
   * S. Grimme, M. Mueller, A. Hansen, J. Chem. Phys., 2023, 158, 124111.
     DOI: 10.1063/5.0137838
   
   with help from (in alphabetical order)
   P. Atkinson, C. Bannwarth, F. Bohle, G. Brandenburg, E. Caldeweyher
   M. Checinski, S. Dohm, S. Ehlert, S. Ehrlich, I. Gerasimov, C. Hölzer
   A. Katbashev, J. Kohn, J. Koopman, C. Lavigne, S. Lehtola, F. März, M. Müller,
   F. Musil, H. Neugebauer, J. Pisarek, C. Plett, P. Pracht, F. Pultar,
   J. Seibert, P. Shushkov, S. Spicher, M. Stahn, M. Steiner, T. Strunk,
   J. Stückrath, T. Rose, and J. Unsleber
   
 * started run on 2026/05/23 at 08:16:52.325     
   ID    Z sym.   atoms
    1    7 N      1, 5, 10, 17, 23, 28, 35
    2    6 C      2, 3, 6-8, 11-14, 16, 20, 21, 24-26, 29, 31-34, 36-40
    3    8 O      4, 9, 15, 18, 19, 22, 27, 30
    4    1 H      41-70

           -------------------------------------------------
          |                Calculation Setup                |
           -------------------------------------------------

          program call               : /home/xchen/software/xtb-6.7.1/xtb-dist/bin/xtb /home/xchen/Test/benchmark/md_sampled/01_6_0109_n1/snap_0130.xyz --charge -1 --gfn 2 --norestart
          coordinate file            : /home/xchen/Test/benchmark/md_sampled/01_6_0109_n1/snap_0130.xyz
          omp threads                :                    48


           -------------------------------------------------
          |                 G F N 2 - x T B                 |
           -------------------------------------------------

        Reference                      10.1021/acs.jctc.8b01176
      * Hamiltonian:
        H0-scaling (s, p, d)           1.850000    2.230000    2.230000
        zeta-weighting                 0.500000
      * Dispersion:
        s8                             2.700000
        a1                             0.520000
        a2                             5.000000
        s9                             5.000000
      * Repulsion:
        kExp                           1.500000    1.000000
        rExp                           1.000000
      * Coulomb:
        alpha                          2.000000
        third order                    shell-resolved
        anisotropic                    true
        a3                             3.000000
        a5                             4.000000
        cn-shift                       1.200000
        cn-exp                         4.000000
        max-rad                        5.000000


          ...................................................
          :                      SETUP                      :
          :.................................................:
          :  # basis functions                 190          :
          :  # atomic orbitals                 190          :
          :  # shells                          110          :
          :  # electrons                       214          :
          :  max. iterations                   250          :
          :  Hamiltonian                  GFN2-xTB          :
          :  restarted?                      false          :
          :  GBSA solvation                  false          :
          :  PC potential                    false          :
          :  electronic temp.          300.0000000     K    :
          :  accuracy                    1.0000000          :
          :  -> integral cutoff          0.2500000E+02      :
          :  -> integral neglect         0.1000000E-07      :
          :  -> SCF convergence          0.1000000E-05 Eh   :
          :  -> wf. convergence          0.1000000E-03 e    :
          :  Broyden damping             0.4000000          :
          :  net charge                         -1          :
          :  unpaired electrons                  0          :
          ...................................................

 iter      E             dE          RMSdq      gap      omega  full diag
   1   -123.0864587 -0.123086E+03  0.455E+00    3.09       0.0  T
   2   -123.4734826 -0.387024E+00  0.247E+00    2.35       1.0  T
   3   -123.4953096 -0.218271E-01  0.140E+00    1.08       1.0  T
   4   -123.4400515  0.552582E-01  0.720E-01    0.07       1.0  T
   5   -123.5055795 -0.655280E-01  0.259E-01    1.03       1.0  T
   6   -123.5080815 -0.250204E-02  0.113E-01    0.81       1.0  T
   7   -123.5083078 -0.226264E-03  0.745E-02    0.73       1.0  T
   8   -123.5084230 -0.115193E-03  0.376E-02    0.57       1.0  T
   9   -123.5084635 -0.405402E-04  0.164E-02    0.46       1.0  T
  10   -123.5084684 -0.487970E-05  0.764E-03    0.43       1.6  T
  11   -123.5084699 -0.146440E-05  0.241E-03    0.41       5.0  T
  12   -123.5084700 -0.109382E-06  0.811E-04    0.40      14.7  T
  13   -123.5084700 -0.191227E-07  0.386E-04    0.40      31.0  T

   *** convergence criteria satisfied after 13 iterations ***

         #    Occupation            Energy/Eh            Energy/eV
      -------------------------------------------------------------
         1        2.0000           -0.6590878             -17.9347
       ...           ...                  ...                  ...
       101        2.0000           -0.3189384              -8.6788
       102        2.0000           -0.3127243              -8.5097
       103        2.0000           -0.3088036              -8.4030
       104        2.0000           -0.3023999              -8.2287
       105        2.0000           -0.2244044              -6.1064
       106        2.0000           -0.2105447              -5.7292
       107        1.9992           -0.1972049              -5.3662 (HOMO)
       108        0.0008           -0.1824129              -4.9637 (LUMO)
       109        0.0000           -0.1770492              -4.8178
       110                         -0.1665515              -4.5321
       111                         -0.1562587              -4.2520
       112                         -0.1556289              -4.2349
       ...                                ...                  ...
       190                          0.8688113              23.6416
      -------------------------------------------------------------
                  HL-Gap            0.0147920 Eh            0.4025 eV
             Fermi-level           -0.1898106 Eh           -5.1650 eV

 SCC (total)                   0 d,  0 h,  0 min, 12.627 sec
 SCC setup                      ...        0 min,  0.033 sec (  0.260%)
 Dispersion                     ...        0 min,  0.048 sec (  0.379%)
 classical contributions        ...        0 min,  0.009 sec (  0.075%)
 integral evaluation            ...        0 min,  0.384 sec (  3.043%)
 iterations                     ...        0 min, 11.498 sec ( 91.056%)
 molecular gradient             ...        0 min,  0.640 sec (  5.068%)
 printout                       ...        0 min,  0.015 sec (  0.118%)

         :::::::::::::::::::::::::::::::::::::::::::::::::::::
         ::                     SUMMARY                     ::
         :::::::::::::::::::::::::::::::::::::::::::::::::::::
         :: total energy            -122.048818135192 Eh    ::
         :: gradient norm              0.336730274387 Eh/a0 ::
         :: HOMO-LUMO gap              0.402511614861 eV    ::
         ::.................................................::
         :: SCC energy              -123.507196204789 Eh    ::
         :: -> isotropic ES            0.411964700969 Eh    ::
         :: -> anisotropic ES          0.015734550173 Eh    ::
         :: -> anisotropic XC          0.029790359688 Eh    ::
         :: -> dispersion             -0.080964073627 Eh    ::
         :: repulsion energy           1.458378069597 Eh    ::
         :: add. restraining           0.000000000000 Eh    ::
         :: total charge              -1.000000000004 e     ::
         :::::::::::::::::::::::::::::::::::::::::::::::::::::

           -------------------------------------------------
          |                Property Printout                |
           -------------------------------------------------

    * Orbital Energies and Occupations

         #    Occupation            Energy/Eh            Energy/eV
      -------------------------------------------------------------
         1        2.0000           -0.6590878             -17.9347
       ...           ...                  ...                  ...
        95        2.0000           -0.3367903              -9.1645
        96        2.0000           -0.3334495              -9.0736
        97        2.0000           -0.3325778              -9.0499
        98        2.0000           -0.3324041              -9.0452
        99        2.0000           -0.3261259              -8.8743
       100        2.0000           -0.3204814              -8.7207
       101        2.0000           -0.3189384              -8.6788
       102        2.0000           -0.3127243              -8.5097
       103        2.0000           -0.3088036              -8.4030
       104        2.0000           -0.3023999              -8.2287
       105        2.0000           -0.2244044              -6.1064
       106        2.0000           -0.2105447              -5.7292
       107        1.9992           -0.1972049              -5.3662 (HOMO)
       108        0.0008           -0.1824129              -4.9637 (LUMO)
       109        0.0000           -0.1770492              -4.8178
       110                         -0.1665515              -4.5321
       111                         -0.1562587              -4.2520
       112                         -0.1556289              -4.2349
       113                         -0.1517855              -4.1303
       114                         -0.1504591              -4.0942
       115                         -0.1497626              -4.0752
       116                         -0.1113067              -3.0288
       117                         -0.0284859              -0.7751
       118                         -0.0089812              -0.2444
       ...                                ...                  ...
       190                          0.8688113              23.6416
      -------------------------------------------------------------
                  HL-Gap            0.0147920 Eh            0.4025 eV
             Fermi-level           -0.1898106 Eh           -5.1650 eV

     #   Z          covCN         q      C6AA      α(0)
     1   7 N        2.684    -0.204    25.434     7.490
     2   6 C        3.721    -0.012    20.907     6.530
     3   6 C        2.742     0.261    22.603     7.784
     4   8 O        0.856    -0.434    22.373     6.342
     5   7 N        2.680    -0.204    25.429     7.489
     6   6 C        3.786     0.021    20.230     6.406
     7   6 C        2.758     0.266    22.506     7.769
     8   6 C        3.793     0.024    20.176     6.396
     9   8 O        0.860    -0.474    23.220     6.461
    10   7 N        2.693    -0.195    25.225     7.459
    11   6 C        3.773    -0.048    21.462     6.601
    12   6 C        2.758     0.263    22.570     7.780
    13   6 C        3.794    -0.081    22.046     6.686
    14   6 C        3.756    -0.019    20.960     6.528
    15   8 O        0.859    -0.405    21.789     6.258
    16   6 C        2.692     0.374    20.664     7.440
    17   7 N        2.697    -0.172    24.712     7.383
    18   8 O        0.863    -0.591    25.907     6.824
    19   8 O        0.856    -0.583    25.706     6.798
    20   6 C        2.772     0.261    22.610     7.788
    21   6 C        3.775     0.024    20.203     6.404
    22   8 O        0.860    -0.432    22.327     6.335
    23   7 N        2.705    -0.168    24.637     7.372
    24   6 C        3.756    -0.121    22.870     6.819
    25   6 C        2.754     0.273    22.380     7.747
    26   6 C        3.794    -0.010    20.754     6.487
    27   8 O        0.860    -0.448    22.667     6.383
    28   7 N        2.689    -0.162    24.499     7.351
    29   6 C        2.784     0.267    22.496     7.769
    30   8 O        0.859    -0.433    22.352     6.339
    31   6 C        3.790    -0.055    21.577     6.615
    32   6 C        3.023    -0.024    28.566     8.767
    33   6 C        3.046     0.004    27.887     8.661
    34   6 C        3.096    -0.007    28.070     8.683
    35   7 N        2.739    -0.125    23.711     7.232
    36   6 C        3.107     0.048    26.797     8.482
    37   6 C        2.911    -0.032    28.795     8.799
    38   6 C        2.914    -0.057    29.414     8.893
    39   6 C        2.927    -0.042    29.038     8.837
    40   6 C        2.916    -0.022    28.556     8.763
    41   1 H        0.855     0.180     1.215     1.727
    42   1 H        0.911     0.087     1.906     2.160
    43   1 H        0.928     0.071     2.073     2.252
    44   1 H        0.859     0.171     1.264     1.761
    45   1 H        0.926     0.071     2.079     2.255
    46   1 H        0.925     0.057     2.237     2.339
    47   1 H        0.862     0.185     1.185     1.705
    48   1 H        0.927     0.043     2.407     2.426
    49   1 H        0.894     0.059     2.222     2.332
    50   1 H        0.902    -0.005     3.144     2.774
    51   1 H        0.929     0.041     2.435     2.440
    52   1 H        0.926     0.088     1.900     2.155
    53   1 H        0.921     0.061     2.188     2.313
    54   1 H        0.861     0.187     1.173     1.696
    55   1 H        0.905     0.058     2.225     2.334
    56   1 H        0.861     0.180     1.214     1.726
    57   1 H        0.926     0.060     2.198     2.319
    58   1 H        0.923     0.048     2.350     2.397
    59   1 H        0.927     0.075     2.029     2.227
    60   1 H        0.921     0.061     2.184     2.311
    61   1 H        0.925     0.082     1.954     2.186
    62   1 H        0.861     0.212     1.047     1.603
    63   1 H        0.929     0.082     1.958     2.188
    64   1 H        0.908     0.062     2.181     2.310
    65   1 H        0.922     0.028     2.611     2.527
    66   1 H        0.861     0.159     1.344     1.816
    67   1 H        0.919     0.023     2.697     2.568
    68   1 H        0.926     0.023     2.695     2.567
    69   1 H        0.921     0.018     2.772     2.604
    70   1 H        0.910     0.005     2.968     2.695

 Mol. C6AA /au·bohr⁶  :      56208.656924
 Mol. C8AA /au·bohr⁸  :    1291714.487298
 Mol. α(0) /au        :        359.665886


Wiberg/Mayer (AO) data.
largest (>0.10) Wiberg bond orders for each atom

 ---------------------------------------------------------------------------
     #   Z sym  total        # sym  WBO       # sym  WBO       # sym  WBO
 ---------------------------------------------------------------------------
     1   7 N    3.402 --     7 C    1.227     2 C    0.977    41 H    0.918
                             9 O    0.179
     2   6 C    3.964 --     1 N    0.977     3 C    0.967    43 H    0.960
                            42 H    0.956
     3   6 C    3.950 --     4 O    1.682     5 N    1.230     2 C    0.967
     4   8 O    1.986 --     3 C    1.682     5 N    0.192
     5   7 N    3.410 --     3 C    1.230     6 C    0.966    44 H    0.944
                             4 O    0.192
     6   6 C    3.955 --    31 C    0.971     5 N    0.966    45 H    0.958
                            29 C    0.915
     7   6 C    3.950 --     9 O    1.631     1 N    1.227     8 C    0.991
     8   6 C    3.952 --     7 C    0.991    10 N    0.969    46 H    0.941
                            11 C    0.916
     9   8 O    1.955 --     7 C    1.631     1 N    0.179
    10   7 N    3.422 --    12 C    1.236     8 C    0.969    47 H    0.936
                            15 O    0.208
    11   6 C    3.970 --    13 C    1.018    48 H    0.976    49 H    0.963
                             8 C    0.916
    12   6 C    3.954 --    15 O    1.719    10 N    1.236    14 C    0.949
    13   6 C    3.967 --    11 C    1.018    51 H    0.967    50 H    0.957
                            16 C    0.885
    14   6 C    3.961 --    17 N    0.972    53 H    0.965    52 H    0.962
                            12 C    0.949
    15   8 O    2.035 --    12 C    1.719    10 N    0.208
    16   6 C    3.948 --    19 O    1.530    18 O    1.507    13 C    0.885
    17   7 N    3.439 --    20 C    1.272    14 C    0.972    54 H    0.932
                            22 O    0.196
    18   8 O    1.834 --    16 C    1.507    19 O    0.239
    19   8 O    1.849 --    16 C    1.530    18 O    0.239
    20   6 C    3.952 --    22 O    1.683    17 N    1.272    21 C    0.924
    21   6 C    3.963 --    24 C    1.002    23 N    0.975    55 H    0.946
                            20 C    0.924
    22   8 O    2.001 --    20 C    1.683    17 N    0.196
    23   7 N    3.459 --    25 C    1.273    21 C    0.975    56 H    0.935
                            27 O    0.191
    24   6 C    3.979 --    21 C    1.002    57 H    0.980    59 H    0.978
                            58 H    0.978
    25   6 C    3.954 --    27 O    1.666    23 N    1.273    26 C    0.938
    26   6 C    3.979 --    28 N    1.023    60 H    0.952    61 H    0.951
                            25 C    0.938
    27   8 O    1.989 --    25 C    1.666    23 N    0.191
    28   7 N    3.426 --    29 C    1.248    26 C    1.023    62 H    0.912
                            30 O    0.181
    29   6 C    3.946 --    30 O    1.697    28 N    1.248     6 C    0.915
    30   8 O    2.002 --    29 C    1.697    28 N    0.181
    31   6 C    3.985 --    32 C    1.010     6 C    0.971    64 H    0.968
                            63 H    0.963
    32   6 C    3.973 --    33 C    1.650    34 C    1.128    31 C    1.010
    33   6 C    3.948 --    32 C    1.650    35 N    1.161    65 H    0.965
    34   6 C    3.984 --    37 C    1.419    36 C    1.245    32 C    1.128
    35   7 N    3.502 --    36 C    1.163    33 C    1.161    66 H    0.947
    36   6 C    3.958 --    38 C    1.350    34 C    1.245    35 N    1.163
    37   6 C    3.989 --    34 C    1.419    39 C    1.401    67 H    0.967
                            38 C    0.127
    38   6 C    3.986 --    40 C    1.449    36 C    1.350    68 H    0.970
                            37 C    0.127
    39   6 C    3.988 --    40 C    1.454    37 C    1.401    69 H    0.970
    40   6 C    3.990 --    39 C    1.454    38 C    1.449    70 H    0.962
    41   1 H    0.968 --     1 N    0.918
    42   1 H    0.992 --     2 C    0.956
    43   1 H    0.995 --     2 C    0.960
    44   1 H    0.970 --     5 N    0.944
    45   1 H    0.995 --     6 C    0.958
    46   1 H    0.997 --     8 C    0.941
    47   1 H    0.966 --    10 N    0.936
    48   1 H    0.998 --    11 C    0.976
    49   1 H    0.996 --    11 C    0.963
    50   1 H    1.000 --    13 C    0.957
    51   1 H    0.998 --    13 C    0.967
    52   1 H    0.992 --    14 C    0.962
    53   1 H    0.996 --    14 C    0.965
    54   1 H    0.965 --    17 N    0.932
    55   1 H    0.997 --    21 C    0.946
    56   1 H    0.968 --    23 N    0.935
    57   1 H    0.996 --    24 C    0.980
    58   1 H    0.997 --    24 C    0.978
    59   1 H    0.994 --    24 C    0.978
    60   1 H    0.996 --    26 C    0.952
    61   1 H    0.993 --    26 C    0.951
    62   1 H    0.955 --    28 N    0.912
    63   1 H    0.993 --    31 C    0.963
    64   1 H    0.996 --    31 C    0.968
    65   1 H    0.998 --    33 C    0.965
    66   1 H    0.974 --    35 N    0.947
    67   1 H    0.999 --    37 C    0.967
    68   1 H    0.999 --    38 C    0.970
    69   1 H    0.999 --    39 C    0.970
    70   1 H    0.999 --    40 C    0.962
 ---------------------------------------------------------------------------

Topologies differ in total number of bonds
Writing topology from bond orders to xtbtopo.mol

molecular dipole:
                 x           y           z       tot (Debye)
 q only:        3.071       9.264       7.167
   full:        3.054       9.256       7.403      31.110
molecular quadrupole (traceless):
                xx          xy          yy          xz          yz          zz
 q only:       65.535     -45.447     -53.118     -28.957    -126.226     -12.417
  q+dip:       58.902     -44.118     -48.887     -26.379    -134.074     -10.015
   full:       61.703     -45.455     -51.028     -27.257    -133.046     -10.675


           -------------------------------------------------
          | TOTAL ENERGY             -122.048818135192 Eh   |
          | GRADIENT NORM               0.336730274387 Eh/α |
          | HOMO-LUMO GAP               0.402511614861 eV   |
           -------------------------------------------------

------------------------------------------------------------------------
 * finished run on 2026/05/23 at 08:17:05.680     
------------------------------------------------------------------------
 total:
 * wall-time:     0 d,  0 h,  0 min, 13.353 sec
 *  cpu-time:     0 d,  0 h,  0 min, 15.173 sec
 * ratio c/w:     1.136 speedup
 SCF:
 * wall-time:     0 d,  0 h,  0 min, 12.628 sec
 *  cpu-time:     0 d,  0 h,  0 min, 14.558 sec
 * ratio c/w:     1.153 speedup

normal termination of xtb
