      -----------------------------------------------------------      
     |                   =====================                   |     
     |                           x T B                           |     
     |                   =====================                   |     
     |                         S. Grimme                         |     
     |          Mulliken Center for Theoretical Chemistry        |     
     |                    University of Bonn                     |     
      -----------------------------------------------------------      

   * xtb version 6.7.1 (26dd68d) compiled by 'froitzheim@fs7' on 2026-05-14

   xtb is free software: you can redistribute it and/or modify it under
   the terms of the GNU Lesser General Public License as published by
   the Free Software Foundation, either version 3 of the License, or
   (at your option) any later version.
   
   xtb is distributed in the hope that it will be useful,
   but WITHOUT ANY WARRANTY; without even the implied warranty of
   MERCHANTABILITY or FITNESS FOR A PARTICULAR PURPOSE.  See the
   GNU Lesser General Public License for more details.
   
   Cite this work as:
   * C. Bannwarth, E. Caldeweyher, S. Ehlert, A. Hansen, P. Pracht,
     J. Seibert, S. Spicher, S. Grimme, WIREs Comput. Mol. Sci., 2020, 11,
     e01493. DOI: 10.1002/wcms.1493
   
   for g-xTB:
   * T. Froitzheim, M. Müller, A. Hansen, S. Grimme, ChemRxiv, 2025, preprint.
     DOI: 10.26434/chemrxiv-2025-bjxv
   for GFN2-xTB:
   * C. Bannwarth, S. Ehlert and S. Grimme., J. Chem. Theory Comput., 2019,
     15, 1652-1671. DOI: 10.1021/acs.jctc.8b01176
   for GFN1-xTB:
   * S. Grimme, C. Bannwarth, P. Shushkov, J. Chem. Theory Comput., 2017,
     13, 1989-2009. DOI: 10.1021/acs.jctc.7b00118
   for GFN0-xTB:
   * P. Pracht, E. Caldeweyher, S. Ehlert, S. Grimme, ChemRxiv, 2019, preprint.
     DOI: 10.26434/chemrxiv.8326202.v1
   for GFN-FF:
   * S. Spicher and S. Grimme, Angew. Chem. Int. Ed., 2020, 59, 15665-15673.
     DOI: 10.1002/anie.202004239
   
   for ALPB and GBSA implicit solvation:
   * S. Ehlert, M. Stahn, S. Spicher, S. Grimme, J. Chem. Theory Comput.,
     2021, 17, 4250-4261. DOI: 10.1021/acs.jctc.1c00471
   
   for ddCOSMO and CPCM-X implicit solvation:
   * M. Stahn, S. Ehlert, S. Grimme, J. Phys. Chem. A,
     2023, XX, XXXX-XXXX. DOI: 10.1021/acs.jpca.3c04382
   
   for DFT-D4:
   * E. Caldeweyher, C. Bannwarth and S. Grimme, J. Chem. Phys., 2017,
     147, 034112. DOI: 10.1063/1.4993215
   * E. Caldeweyher, S. Ehlert, A. Hansen, H. Neugebauer, S. Spicher,
     C. Bannwarth and S. Grimme, J. Chem. Phys., 2019, 150, 154122.
     DOI: 10.1063/1.5090222
   * E. Caldeweyher, J.-M. Mewes, S. Ehlert and S. Grimme, Phys. Chem. Chem. Phys.
     2020, 22, 8499-8512. DOI: 10.1039/D0CP00502A
   
   for sTDA-xTB:
   * S. Grimme and C. Bannwarth, J. Chem. Phys., 2016, 145, 054103.
     DOI: 10.1063/1.4959605
   
   in the mass-spec context:
   * V. Asgeirsson, C. Bauer and S. Grimme, Chem. Sci., 2017, 8, 4879.
     DOI: 10.1039/c7sc00601b
   * J. Koopman and S. Grimme, ACS Omega 2019, 4, 12, 15120-15133.
     DOI: 10.1021/acsomega.9b02011
   
   for metadynamics refer to:
   * S. Grimme, J. Chem. Theory Comput., 2019, 155, 2847-2862
     DOI: 10.1021/acs.jctc.9b00143
   
   for SPH calculations refer to:
   * S. Spicher and S. Grimme, J. Chem. Theory Comput., 2021, 17, 1701-1714
     DOI: 10.1021/acs.jctc.0c01306
   
   for ONIOM refer to:
   * C. Plett, A. Katbashev, S. Ehlert, S. Grimme, M. Bursch,
     Phys. Chem. Chem. Phys., 2023, 25, 17860-17868. DOI: 10.1039/D3CP02178E
   
   for DIPRO refer to:
   * J. Kohn, N. Gildemeister, S. Grimme, D. Fazzi, A. Hansen,
     J. Chem. Phys. 159, 144106 (2023). DOI: 10.1063/5.0167484
   
   for PTB refer to:
   * S. Grimme, M. Mueller, A. Hansen, J. Chem. Phys., 2023, 158, 124111.
     DOI: 10.1063/5.0137838
   
   with help from (in alphabetical order)
   P. Atkinson, C. Bannwarth, F. Bohle, G. Brandenburg, E. Caldeweyher,
   M. Checinski, S. Dohm, S. Ehlert, S. Ehrlich, M. Friede, T. Froitzheim,
   I. Gerasimov, C. Hölzer, A. Katbashev, J. Kohn, J. Koopman, C. Lavigne,
   S. Lehtola, F. März, M. Müller, F. Musil, H. Neugebauer, J. Pisarek,
   C. Plett, P. Pracht, F. Pultar, J. Seibert, P. Shushkov, S. Spicher,
   M. Stahn, M. Steiner, T. Strunk, J. Stückrath, T. Rose, and J. Unsleber
   
 * started run on 2026/05/23 at 12:34:27.327     
   ID    Z sym.   atoms
    1    7 N      1, 5, 10, 17, 27, 34, 39, 43, 54, 56, 57
    2    6 C      2, 3, 6-8, 11-14, 16, 18, 21-23, 28-31, 33, 35-38, 40,
                  44-48, 50-53, 55, 58
    3    8 O      4, 9, 15, 19, 20, 24-26, 32, 41, 49
    4   16 S      42
    5    1 H      59-117

           -------------------------------------------------
          |                Calculation Setup                |
           -------------------------------------------------

          program call               : /home/xchen/software/xtb-6.7.1-gxtb/bin/xtb /home/xchen/Test/benchmark/md_sampled/04_7_0231_n2/snap_0040.xyz --charge -2 --gxtb --norestart
          coordinate file            : /home/xchen/Test/benchmark/md_sampled/04_7_0231_n2/snap_0040.xyz
          omp threads                :                    48

core increment energy         -2.9312527735450E+03 Eh
dispersion energy              2.5267407243051E-02 Eh
molecular charge              -2.0000000000000E+00 e
number of electrons            3.2799999999710E+02 e
number of unpaired electrons   0.0000000000000E+00 e
wavefunction                   restricted
integral cutoff                2.6907767250513E+01 bohr
energy convergence             1.0000000000000E-06 Eh
density convergence            2.0000000000000E-05 e

------------------------------------------------------------
  cycle        total energy    energy error   density error
------------------------------------------------------------
      1     -3195.893792592  -2.6466629E+02   0.0000000E+00
      2     -3196.380861469  -4.8706888E-01   2.0396800E-02
      3     -3196.692652824  -3.1179136E-01   1.6037646E-02
      4     -3197.351139921  -6.5848710E-01   1.2665328E-02
      5     -3197.361445410  -1.0305488E-02   8.7984565E-04
      6     -3197.362229146  -7.8373633E-04   1.7695648E-04
      7     -3197.362299210  -7.0064089E-05   5.1900085E-05
      8     -3197.362303491  -4.2812964E-06   1.5880930E-05
      9     -3197.362304033  -5.4191906E-07   2.6760434E-06
------------------------------------------------------------

electronic energy             -2.6613479789557E+02 Eh
total energy                  -3.1973623040333E+03 Eh

Post processing:
 | Mayer-Wiberg bond orders
 | Molecular Multipole Moments

 total:                                  23.927 sec
 - increment                              0.000 sec (  0%)
 - repulsion                              0.007 sec (  0%)
 - dispersion                             0.465 sec (  1%)
 - coulomb                                0.262 sec (  1%)
 - exchange                               0.006 sec (  0%)
 - hamiltonian                            8.205 sec ( 34%)
 - acp                                    0.288 sec (  1%)
 - spin polarization                      0.000 sec (  0%)
 - post processing                        0.150 sec (  0%)
 - scc                                   12.889 sec ( 53%)
 - coulomb gradient                       0.231 sec (  0%)
 - dispersion gradient                    0.077 sec (  0%)
 - exchange gradient                      0.169 sec (  0%)
 - repulsion gradient                     0.017 sec (  0%)
 - acp gradient                           0.461 sec (  1%)
 - hamiltonian gradient                   0.841 sec (  3%)
 - gradient                               1.796 sec (  7%)

         :::::::::::::::::::::::::::::::::::::::::::::::::::::
         ::                     SUMMARY                     ::
         :::::::::::::::::::::::::::::::::::::::::::::::::::::
         :: total energy           -3197.362304033328 Eh    ::
         :: gradient norm              0.402048076069 Eh/a0 ::
         :: HOMO-LUMO gap              6.215004226483 eV    ::
         ::.................................................::
         :: add. restraining           0.000000000000 Eh    ::
         :: total charge              -2.000000000000 e     ::
         :::::::::::::::::::::::::::::::::::::::::::::::::::::

           -------------------------------------------------
          |                Property Printout                |
           -------------------------------------------------

    * Orbital Energies and Occupations
------------------------------------------------------------------
      #    Occupation            Energy/Eh            Energy/eV
------------------------------------------------------------------
      1        2.0000           -1.2132927             -33.0154
    ...           ...                  ...                  ...
    152        2.0000           -0.2084644              -5.6726
    153        2.0000           -0.2056973              -5.5973
    154        2.0000           -0.2049484              -5.5769
    155        2.0000           -0.1978334              -5.3833
    156        2.0000           -0.1953385              -5.3154
    157        2.0000           -0.1867369              -5.0814
    158        2.0000           -0.1796759              -4.8892
    159        2.0000           -0.1689737              -4.5980
    160        2.0000           -0.1541306              -4.1941
    161        2.0000           -0.1504944              -4.0952
    162        2.0000           -0.1322234              -3.5980
    163        2.0000           -0.1141385              -3.1059
    164        2.0000           -0.0982266              -2.6729 (HOMO)
    165                          0.1301706               3.5421 (LUMO)
    166                          0.1365847               3.7167
    167                          0.1540101               4.1908
    168                          0.1613912               4.3917
    169                          0.1679793               4.5710
    170                          0.1764751               4.8021
    171                          0.1875212               5.1027
    172                          0.1899757               5.1695
    173                          0.1973264               5.3695
    174                          0.1995882               5.4311
    175                          0.2463215               6.7027
    ...                                ...                  ...
    296                          0.9487638              25.8172
------------------------------------------------------------------
               HL-Gap            0.2283972 Eh            6.2150 eV
------------------------------------------------------------------

Atomic charges and shell populations (in atomic units):
-----------------------------------------------------------------
     #    Z                q          p(s)       p(p)       p(d)
-----------------------------------------------------------------
     1    7 N      -0.310576      1.394113   3.916463
     2    6 C      -0.003669      1.141885   2.861784
     3    6 C       0.442599      1.083450   2.473951
     4    8 O      -0.502334      1.851308   4.651026
     5    7 N      -0.346867      1.381966   3.964901
     6    6 C      -0.022179      1.117382   2.904797
     7    6 C       0.428854      1.106804   2.464342
     8    6 C       0.014350      1.141755   2.843895
     9    8 O      -0.551410      1.855647   4.695763
    10    7 N      -0.320669      1.362229   3.958440
    11    6 C      -0.191253      1.160213   3.031041
    12    6 C       0.411613      1.114619   2.473768
    13    6 C      -0.186819      1.189679   2.997140
    14    6 C      -0.005168      1.111424   2.893744
    15    8 O      -0.585070      1.854274   4.730797
    16    6 C       0.512310      1.069841   2.417849
    17    7 N      -0.343033      1.383603   3.959430
    18    6 C      -0.207184      1.169804   3.037380
    19    8 O      -0.697189      1.853874   4.843315
    20    8 O      -0.713450      1.856565   4.856885
    21    6 C       0.419095      1.092171   2.488734
    22    6 C       0.505727      1.100756   2.393517
    23    6 C      -0.030614      1.133178   2.897436
    24    8 O      -0.585281      1.849821   4.735461
    25    8 O      -0.620228      1.861641   4.758587
    26    8 O      -0.727690      1.866046   4.861644
    27    7 N      -0.317753      1.358665   3.959088
    28    6 C      -0.165194      1.168889   2.996305
    29    6 C       0.416052      1.082825   2.501123
    30    6 C      -0.178890      1.150880   3.028010
    31    6 C       0.014279      1.120373   2.865348
    32    8 O      -0.568867      1.853471   4.715396
    33    6 C      -0.179534      1.169227   3.010307
    34    7 N      -0.316287      1.358953   3.957333
    35    6 C      -0.195939      1.140522   3.055417
    36    6 C      -0.103181      1.129238   2.973944
    37    6 C       0.399713      1.109802   2.490486
    38    6 C      -0.116532      1.188672   2.927860
    39    7 N      -0.520391      1.417540   4.102851
    40    6 C      -0.002035      1.109242   2.892794
    41    8 O      -0.566239      1.854408   4.711831
    42   16 S      -0.223189      1.901055   4.251238   0.070895
    43    7 N      -0.376329      1.375975   4.000354
    44    6 C      -0.098058      1.132132   2.965927
    45    6 C      -0.229037      1.198132   3.030906
    46    6 C       0.419871      1.109863   2.470267
    47    6 C      -0.273001      1.176732   3.096269
    48    6 C      -0.199612      1.163966   3.035645
    49    8 O      -0.493530      1.852198   4.641332
    50    6 C      -0.258145      1.168859   3.089286
    51    6 C      -0.180444      1.157681   3.022763
    52    6 C      -0.197816      1.158065   3.039751
    53    6 C      -0.071400      1.144324   2.927076
    54    7 N      -0.409719      1.375170   4.034550
    55    6 C       0.288533      1.075595   2.635872
    56    7 N      -0.563645      1.542491   4.021154
    57    7 N      -0.464088      1.366465   4.097622
    58    6 C      -0.244181      1.170904   3.073277
    59    1 H       0.267341      0.732659
    60    1 H       0.116143      0.883857
    61    1 H       0.276053      0.723947
    62    1 H       0.123820      0.876180
    63    1 H       0.107119      0.892881
    64    1 H       0.274071      0.725929
    65    1 H       0.110435      0.889565
    66    1 H       0.096527      0.903473
    67    1 H       0.076162      0.923838
    68    1 H       0.083431      0.916569
    69    1 H       0.113806      0.886194
    70    1 H       0.338532      0.661468
    71    1 H       0.109196      0.890804
    72    1 H       0.091365      0.908635
    73    1 H       0.133403      0.866597
    74    1 H       0.296397      0.703603
    75    1 H       0.098550      0.901450
    76    1 H       0.137981      0.862019
    77    1 H       0.104790      0.895210
    78    1 H       0.092612      0.907388
    79    1 H       0.101449      0.898551
    80    1 H       0.123925      0.876075
    81    1 H       0.069753      0.930247
    82    1 H       0.260861      0.739139
    83    1 H       0.129426      0.870574
    84    1 H       0.130423      0.869577
    85    1 H       0.105241      0.894759
    86    1 H       0.054041      0.945959
    87    1 H       0.108211      0.891789
    88    1 H       0.090592      0.909408
    89    1 H       0.238844      0.761156
    90    1 H       0.212947      0.787053
    91    1 H       0.127371      0.872629
    92    1 H       0.255784      0.744216
    93    1 H       0.122280      0.877720
    94    1 H       0.120588      0.879412
    95    1 H       0.114055      0.885945
    96    1 H       0.099630      0.900370
    97    1 H       0.102906      0.897094
    98    1 H       0.077500      0.922500
    99    1 H       0.094834      0.905166
   100    1 H       0.083557      0.916443
   101    1 H       0.101824      0.898176
   102    1 H       0.079683      0.920317
   103    1 H       0.087533      0.912467
   104    1 H       0.117165      0.882835
   105    1 H       0.135002      0.864998
   106    1 H       0.113486      0.886514
   107    1 H       0.107926      0.892074
   108    1 H       0.095833      0.904167
   109    1 H       0.106354      0.893646
   110    1 H       0.080548      0.919452
   111    1 H       0.255918      0.744082
   112    1 H       0.227975      0.772025
   113    1 H       0.249305      0.750695
   114    1 H       0.252860      0.747140
   115    1 H       0.151731      0.848269
   116    1 H       0.069803      0.930197
   117    1 H       0.085830      0.914170
-----------------------------------------------------------------


Wiberg/Mayer (AO) data.
largest (>0.10) Wiberg bond orders for each atom

 ---------------------------------------------------------------------------
     #   Z sym  total        # sym  WBO       # sym  WBO       # sym  WBO
 ---------------------------------------------------------------------------
     1   7 N    3.313 --     7 C    1.250     2 C    0.940    59 N    0.891
                             9 C    0.152
     2   6 C    3.942 --    51 C    0.977    60 N    0.949     3 C    0.945
                             1 N    0.940
     3   6 C    3.876 --     4 C    1.703     5 N    1.165     2 C    0.945
     4   8 C    1.987 --     3 C    1.703     5 N    0.170
     5   7 N    3.285 --     3 C    1.165     6 C    0.974    61 N    0.879
                             4 C    0.170
     6   6 C    3.952 --    58 C    1.007     5 N    0.974    46 C    0.926
                            62 N    0.926
     7   6 C    3.851 --     9 C    1.632     1 N    1.250     8 C    0.896
     8   6 C    3.924 --    11 C    0.993    10 N    0.958    63 N    0.937
                             7 C    0.896
     9   8 C    1.929 --     7 C    1.632     1 N    0.152
    10   7 N    3.349 --    12 C    1.240     8 C    0.958    64 N    0.889
                            15 C    0.161
    11   6 C    3.952 --     8 C    0.993    13 C    0.988    66 N    0.952
                            65 N    0.946
    12   6 C    3.858 --    15 C    1.626    10 N    1.240    14 C    0.912
    13   6 C    3.946 --    11 C    0.988    68 N    0.961    67 N    0.956
                            16 C    0.914
    14   6 C    3.943 --    17 N    0.990    18 C    0.988    69 N    0.928
                            12 C    0.912
    15   8 C    1.899 --    12 C    1.626    10 N    0.161
    16   6 C    3.869 --    19 C    1.483    20 C    1.453    13 C    0.914
    17   7 N    3.299 --    21 C    1.279    14 C    0.990    70 N    0.754
                            24 C    0.143
    18   6 C    3.952 --    14 C    0.988    72 N    0.964    71 N    0.952
                            22 C    0.905
    19   8 C    1.753 --    16 C    1.483    20 C    0.197
    20   8 C    1.731 --    16 C    1.453    19 C    0.197
    21   6 C    3.876 --    24 C    1.581    17 N    1.279    23 C    0.935
    22   6 C    3.853 --    25 C    1.582    26 C    1.339    18 C    0.905
    23   6 C    3.915 --    27 N    0.972    73 N    0.939    28 C    0.936
                            21 C    0.935
    24   8 C    1.913 --    21 C    1.581    17 N    0.143
    25   8 C    1.854 --    22 C    1.582    26 C    0.187
    26   8 C    1.739 --    22 C    1.339    25 C    0.187
    27   7 N    3.404 --    29 C    1.331    23 C    0.972    74 N    0.835
                            32 C    0.178
    28   6 C    3.945 --    30 C    1.013    75 N    0.960    76 N    0.946
                            23 C    0.936
    29   6 C    3.893 --    32 C    1.588    27 N    1.331    31 C    0.907
    30   6 C    3.965 --    28 C    1.013    33 C    1.000    78 N    0.963
                            77 N    0.948
    31   6 C    3.924 --    35 C    1.002    34 N    0.942    79 N    0.936
                            29 C    0.907
    32   8 C    1.905 --    29 C    1.588    27 N    0.178
    33   6 C    3.959 --    30 C    1.000    36 C    0.985    81 N    0.966
                            80 N    0.941
    34   7 N    3.367 --    37 C    1.282    31 C    0.942    82 N    0.884
                            41 C    0.168
    35   6 C    3.956 --    31 C    1.002    38 C    1.002    83 N    0.941
                            84 N    0.936
    36   6 C    3.953 --    39 N    1.026    33 C    0.985    85 N    0.961
                            86 N    0.960
    37   6 C    3.874 --    41 C    1.616    34 N    1.282    40 C    0.890
    38   6 C    3.938 --    35 C    1.002    42 O    0.988    87 N    0.951
                            88 N    0.951
    39   7 N    2.965 --    36 C    1.026    90 N    0.936    89 N    0.929
    40   6 C    3.939 --    44 C    0.999    43 N    0.981    91 N    0.929
                            37 C    0.890
    41   8 C    1.910 --    37 C    1.616    34 N    0.168
    42  16 O    2.077 --    38 C    0.988    45 C    0.981
    43   7 N    3.259 --    46 C    1.126    40 C    0.981    92 N    0.898
                            49 C    0.149
    44   6 C    3.969 --    40 C    0.999    47 C    0.997    48 C    0.973
                            93 N    0.942
    45   6 C    3.918 --    42 O    0.981    96 N    0.974    94 N    0.970
                            95 N    0.961
    46   6 C    3.855 --    49 C    1.731    43 N    1.126     6 C    0.926
    47   6 C    3.956 --    44 C    0.997    98 N    0.976    99 N    0.973
                            97 N    0.972
    48   6 C    3.963 --    50 C    1.022    44 C    0.973   100 N    0.964
                           101 N    0.958
    49   8 C    2.012 --    46 C    1.731    43 N    0.149
    50   6 C    3.956 --    48 C    1.022   103 N    0.974   102 N    0.974
                           104 N    0.963
    51   6 C    3.952 --    52 C    0.997     2 C    0.977   106 N    0.956
                           105 N    0.955
    52   6 C    3.960 --    53 C    1.008    51 C    0.997   107 N    0.958
                           108 N    0.955
    53   6 C    3.923 --    52 C    1.008    54 N    0.960   109 N    0.957
                           110 N    0.953
    54   7 N    3.157 --    55 C    1.087    53 C    0.960   111 N    0.895
                            56 N    0.103
    55   6 C    3.944 --    56 N    1.703    57 N    1.130    54 N    1.087
    56   7 N    2.882 --    55 C    1.703   112 N    0.912    57 N    0.119
                            54 N    0.103
    57   7 N    3.136 --    55 C    1.130   113 N    0.911   114 N    0.911
                            56 N    0.119
    58   6 C    3.945 --     6 C    1.007   116 N    0.971   117 N    0.961
                           115 N    0.952
    59   1 N    0.929 --     1 N    0.891
    60   1 N    0.987 --     2 C    0.949
    61   1 N    0.924 --     5 N    0.879
    62   1 N    0.985 --     6 C    0.926
    63   1 N    0.989 --     8 C    0.937
    64   1 N    0.925 --    10 N    0.889
    65   1 N    0.988 --    11 C    0.946
    66   1 N    0.991 --    11 C    0.952
    67   1 N    0.994 --    13 C    0.956
    68   1 N    0.993 --    13 C    0.961
    69   1 N    0.987 --    14 C    0.928
    70   1 N    0.885 --    17 N    0.754
    71   1 N    0.988 --    18 C    0.952
    72   1 N    0.992 --    18 C    0.964
    73   1 N    0.982 --    23 C    0.939
    74   1 N    0.912 --    27 N    0.835
    75   1 N    0.990 --    28 C    0.960
    76   1 N    0.981 --    28 C    0.946
    77   1 N    0.989 --    30 C    0.948
    78   1 N    0.991 --    30 C    0.963
    79   1 N    0.990 --    31 C    0.936
    80   1 N    0.985 --    33 C    0.941
    81   1 N    0.995 --    33 C    0.966
    82   1 N    0.932 --    34 N    0.884
    83   1 N    0.983 --    35 C    0.941
    84   1 N    0.983 --    35 C    0.936
    85   1 N    0.989 --    36 C    0.961
    86   1 N    0.997 --    36 C    0.960
    87   1 N    0.988 --    38 C    0.951
    88   1 N    0.992 --    38 C    0.951
    89   1 N    0.943 --    39 N    0.929
    90   1 N    0.955 --    39 N    0.936
    91   1 N    0.984 --    40 C    0.929
    92   1 N    0.935 --    43 N    0.898
    93   1 N    0.985 --    44 C    0.942
    94   1 N    0.985 --    45 C    0.970
    95   1 N    0.987 --    45 C    0.961
    96   1 N    0.990 --    45 C    0.974
    97   1 N    0.989 --    47 C    0.972
    98   1 N    0.994 --    47 C    0.976
    99   1 N    0.991 --    47 C    0.973
   100   1 N    0.993 --    48 C    0.964
   101   1 N    0.990 --    48 C    0.958
   102   1 N    0.994 --    50 C    0.974
   103   1 N    0.992 --    50 C    0.974
   104   1 N    0.986 --    50 C    0.963
   105   1 N    0.982 --    51 C    0.955
   106   1 N    0.987 --    51 C    0.956
   107   1 N    0.988 --    52 C    0.958
   108   1 N    0.991 --    52 C    0.955
   109   1 N    0.989 --    53 C    0.957
   110   1 N    0.994 --    53 C    0.953
   111   1 N    0.935 --    54 N    0.895
   112   1 N    0.948 --    56 N    0.912
   113   1 N    0.938 --    57 N    0.911
   114   1 N    0.936 --    57 N    0.911
   115   1 N    0.977 --    58 C    0.952
   116   1 N    0.995 --    58 C    0.971
   117   1 N    0.993 --    58 C    0.961
 ---------------------------------------------------------------------------

Topologies differ in total number of bonds
Writing topology from bond orders to xtbtopo.mol

Atomic dipole moments (in atomic units):
---------------------------------------------------------
     #    Z                 x            y            z
---------------------------------------------------------
           total     3.546429    13.980579     1.851784
---------------------------------------------------------
         |total|    14.541762    36.961473 Debye


           -------------------------------------------------
          | TOTAL ENERGY            -3197.362304033328 Eh   |
          | GRADIENT NORM               0.402048076069 Eh/α |
           -------------------------------------------------

------------------------------------------------------------------------
 * finished run on 2026/05/23 at 12:34:52.285     
------------------------------------------------------------------------
 total:
 * wall-time:     0 d,  0 h,  0 min, 24.957 sec
 *  cpu-time:     0 d,  0 h,  0 min, 43.260 sec
 * ratio c/w:     1.733 speedup
 SCF:
 * wall-time:     0 d,  0 h,  0 min, 24.502 sec
 *  cpu-time:     0 d,  0 h,  0 min, 42.764 sec
 * ratio c/w:     1.745 speedup

normal termination of xtb
