      -----------------------------------------------------------      
     |                   =====================                   |     
     |                           x T B                           |     
     |                   =====================                   |     
     |                         S. Grimme                         |     
     |          Mulliken Center for Theoretical Chemistry        |     
     |                    University of Bonn                     |     
      -----------------------------------------------------------      

   * xtb version 6.7.1 (edcfbbe) compiled by 'albert@albert-system' on 2024-07-22

   xtb is free software: you can redistribute it and/or modify it under
   the terms of the GNU Lesser General Public License as published by
   the Free Software Foundation, either version 3 of the License, or
   (at your option) any later version.
   
   xtb is distributed in the hope that it will be useful,
   but WITHOUT ANY WARRANTY; without even the implied warranty of
   MERCHANTABILITY or FITNESS FOR A PARTICULAR PURPOSE.  See the
   GNU Lesser General Public License for more details.
   
   Cite this work as:
   * C. Bannwarth, E. Caldeweyher, S. Ehlert, A. Hansen, P. Pracht,
     J. Seibert, S. Spicher, S. Grimme, WIREs Comput. Mol. Sci., 2020, 11,
     e01493. DOI: 10.1002/wcms.1493
   
   for GFN2-xTB:
   * C. Bannwarth, S. Ehlert and S. Grimme., J. Chem. Theory Comput., 2019,
     15, 1652-1671. DOI: 10.1021/acs.jctc.8b01176
   for GFN1-xTB:
   * S. Grimme, C. Bannwarth, P. Shushkov, J. Chem. Theory Comput., 2017,
     13, 1989-2009. DOI: 10.1021/acs.jctc.7b00118
   for GFN0-xTB:
   * P. Pracht, E. Caldeweyher, S. Ehlert, S. Grimme, ChemRxiv, 2019, preprint.
     DOI: 10.26434/chemrxiv.8326202.v1
   for GFN-FF:
   * S. Spicher and S. Grimme, Angew. Chem. Int. Ed., 2020, 59, 15665-15673.
     DOI: 10.1002/anie.202004239
   
   for ALPB and GBSA implicit solvation:
   * S. Ehlert, M. Stahn, S. Spicher, S. Grimme, J. Chem. Theory Comput.,
     2021, 17, 4250-4261. DOI: 10.1021/acs.jctc.1c00471
   
   for ddCOSMO and CPCM-X implicit solvation:
   * M. Stahn, S. Ehlert, S. Grimme, J. Phys. Chem. A,
     2023, XX, XXXX-XXXX. DOI: 10.1021/acs.jpca.3c04382
   
   for DFT-D4:
   * E. Caldeweyher, C. Bannwarth and S. Grimme, J. Chem. Phys., 2017,
     147, 034112. DOI: 10.1063/1.4993215
   * E. Caldeweyher, S. Ehlert, A. Hansen, H. Neugebauer, S. Spicher,
     C. Bannwarth and S. Grimme, J. Chem. Phys., 2019, 150, 154122.
     DOI: 10.1063/1.5090222
   * E. Caldeweyher, J.-M. Mewes, S. Ehlert and S. Grimme, Phys. Chem. Chem. Phys.
     2020, 22, 8499-8512. DOI: 10.1039/D0CP00502A
   
   for sTDA-xTB:
   * S. Grimme and C. Bannwarth, J. Chem. Phys., 2016, 145, 054103.
     DOI: 10.1063/1.4959605
   
   in the mass-spec context:
   * V. Asgeirsson, C. Bauer and S. Grimme, Chem. Sci., 2017, 8, 4879.
     DOI: 10.1039/c7sc00601b
   * J. Koopman and S. Grimme, ACS Omega 2019, 4, 12, 15120-15133.
     DOI: 10.1021/acsomega.9b02011
   
   for metadynamics refer to:
   * S. Grimme, J. Chem. Theory Comput., 2019, 155, 2847-2862
     DOI: 10.1021/acs.jctc.9b00143
   
   for SPH calculations refer to:
   * S. Spicher and S. Grimme, J. Chem. Theory Comput., 2021, 17, 1701-1714
     DOI: 10.1021/acs.jctc.0c01306
   
   for ONIOM refer to:
   * C. Plett, A. Katbashev, S. Ehlert, S. Grimme, M. Bursch,
     Phys. Chem. Chem. Phys., 2023, 25, 17860-17868. DOI: 10.1039/D3CP02178E
   
   for DIPRO refer to:
   * J. Kohn, N. Gildemeister, S. Grimme, D. Fazzi, A. Hansen,
     J. Chem. Phys., 2023, just accepted.
   
   for PTB refer to:
   * S. Grimme, M. Mueller, A. Hansen, J. Chem. Phys., 2023, 158, 124111.
     DOI: 10.1063/5.0137838
   
   with help from (in alphabetical order)
   P. Atkinson, C. Bannwarth, F. Bohle, G. Brandenburg, E. Caldeweyher
   M. Checinski, S. Dohm, S. Ehlert, S. Ehrlich, I. Gerasimov, C. Hölzer
   A. Katbashev, J. Kohn, J. Koopman, C. Lavigne, S. Lehtola, F. März, M. Müller,
   F. Musil, H. Neugebauer, J. Pisarek, C. Plett, P. Pracht, F. Pultar,
   J. Seibert, P. Shushkov, S. Spicher, M. Stahn, M. Steiner, T. Strunk,
   J. Stückrath, T. Rose, and J. Unsleber
   
 * started run on 2026/05/23 at 08:18:36.865     
   ID    Z sym.   atoms
    1    7 N      1, 5, 10, 17, 23, 28, 35
    2    6 C      2, 3, 6-8, 11-14, 16, 20, 21, 24-26, 29, 31-34, 36-40
    3    8 O      4, 9, 15, 18, 19, 22, 27, 30
    4    1 H      41-70

           -------------------------------------------------
          |                Calculation Setup                |
           -------------------------------------------------

          program call               : /home/xchen/software/xtb-6.7.1/xtb-dist/bin/xtb /home/xchen/Test/benchmark/md_sampled/01_6_0109_n1/snap_0186.xyz --charge -1 --gfn 2 --norestart
          coordinate file            : /home/xchen/Test/benchmark/md_sampled/01_6_0109_n1/snap_0186.xyz
          omp threads                :                    48


           -------------------------------------------------
          |                 G F N 2 - x T B                 |
           -------------------------------------------------

        Reference                      10.1021/acs.jctc.8b01176
      * Hamiltonian:
        H0-scaling (s, p, d)           1.850000    2.230000    2.230000
        zeta-weighting                 0.500000
      * Dispersion:
        s8                             2.700000
        a1                             0.520000
        a2                             5.000000
        s9                             5.000000
      * Repulsion:
        kExp                           1.500000    1.000000
        rExp                           1.000000
      * Coulomb:
        alpha                          2.000000
        third order                    shell-resolved
        anisotropic                    true
        a3                             3.000000
        a5                             4.000000
        cn-shift                       1.200000
        cn-exp                         4.000000
        max-rad                        5.000000


          ...................................................
          :                      SETUP                      :
          :.................................................:
          :  # basis functions                 190          :
          :  # atomic orbitals                 190          :
          :  # shells                          110          :
          :  # electrons                       214          :
          :  max. iterations                   250          :
          :  Hamiltonian                  GFN2-xTB          :
          :  restarted?                      false          :
          :  GBSA solvation                  false          :
          :  PC potential                    false          :
          :  electronic temp.          300.0000000     K    :
          :  accuracy                    1.0000000          :
          :  -> integral cutoff          0.2500000E+02      :
          :  -> integral neglect         0.1000000E-07      :
          :  -> SCF convergence          0.1000000E-05 Eh   :
          :  -> wf. convergence          0.1000000E-03 e    :
          :  Broyden damping             0.4000000          :
          :  net charge                         -1          :
          :  unpaired electrons                  0          :
          ...................................................

 iter      E             dE          RMSdq      gap      omega  full diag
   1   -123.0236897 -0.123024E+03  0.456E+00    3.10       0.0  T
   2   -123.3822522 -0.358563E+00  0.254E+00    2.07       1.0  T
   3   -123.4061336 -0.238814E-01  0.145E+00    1.09       1.0  T
   4   -122.3385493  0.106758E+01  0.262E+00    0.25       1.0  T
   5   -123.4083140 -0.106976E+01  0.502E-01    0.94       1.0  T
   6   -123.4230224 -0.147083E-01  0.165E-01    0.58       1.0  T
   7   -123.4234003 -0.377890E-03  0.113E-01    0.67       1.0  T
   8   -123.4235373 -0.137015E-03  0.849E-02    0.64       1.0  T
   9   -123.4236135 -0.761735E-04  0.736E-02    0.62       1.0  T
  10   -123.4236744 -0.609295E-04  0.664E-02    0.58       1.0  T
  11   -123.4237196 -0.451888E-04  0.610E-02    0.54       1.0  T
  12   -123.4237637 -0.441566E-04  0.555E-02    0.51       1.0  T
  13   -123.4238327 -0.690040E-04  0.461E-02    0.45       1.0  T
  14   -123.4240238 -0.191065E-03  0.909E-03    0.28       1.3  T
  15   -123.4239259  0.979095E-04  0.266E-02    0.22       1.0  T
  16   -123.4240231 -0.972541E-04  0.870E-03    0.28       1.4  T
  17   -123.4240330 -0.986611E-05  0.165E-03    0.26       7.3  T
  18   -123.4240325  0.470460E-06  0.241E-03    0.26       5.0  T
  19   -123.4240333 -0.757038E-06  0.625E-04    0.26      19.1  T
  20   -123.4240333 -0.502753E-07  0.142E-04    0.26      84.4  T

   *** convergence criteria satisfied after 20 iterations ***

         #    Occupation            Energy/Eh            Energy/eV
      -------------------------------------------------------------
         1        2.0000           -0.6706665             -18.2498
       ...           ...                  ...                  ...
       101        2.0000           -0.3169552              -8.6248
       102        2.0000           -0.3142660              -8.5516
       103        2.0000           -0.3069492              -8.3525
       104        2.0000           -0.2969001              -8.0791
       105        2.0000           -0.2264843              -6.1630
       106        2.0000           -0.2199560              -5.9853
       107        1.9864           -0.1964716              -5.3463 (HOMO)
       108        0.0136           -0.1869994              -5.0885 (LUMO)
       109        0.0000           -0.1760984              -4.7919
       110                         -0.1738678              -4.7312
       111                         -0.1685327              -4.5860
       112                         -0.1617576              -4.4016
       ...                                ...                  ...
       190                          0.8262768              22.4841
      -------------------------------------------------------------
                  HL-Gap            0.0094722 Eh            0.2578 eV
             Fermi-level           -0.1917355 Eh           -5.2174 eV

 SCC (total)                   0 d,  0 h,  0 min, 17.289 sec
 SCC setup                      ...        0 min,  0.039 sec (  0.227%)
 Dispersion                     ...        0 min,  0.088 sec (  0.508%)
 classical contributions        ...        0 min,  0.009 sec (  0.052%)
 integral evaluation            ...        0 min,  0.513 sec (  2.967%)
 iterations                     ...        0 min, 15.776 sec ( 91.248%)
 molecular gradient             ...        0 min,  0.848 sec (  4.906%)
 printout                       ...        0 min,  0.016 sec (  0.092%)

         :::::::::::::::::::::::::::::::::::::::::::::::::::::
         ::                     SUMMARY                     ::
         :::::::::::::::::::::::::::::::::::::::::::::::::::::
         :: total energy            -122.041109170084 Eh    ::
         :: gradient norm              0.292186664112 Eh/a0 ::
         :: HOMO-LUMO gap              0.257751374425 eV    ::
         ::.................................................::
         :: SCC energy              -123.423112584926 Eh    ::
         :: -> isotropic ES            0.397235555589 Eh    ::
         :: -> anisotropic ES          0.016305301414 Eh    ::
         :: -> anisotropic XC          0.035345564879 Eh    ::
         :: -> dispersion             -0.081075598570 Eh    ::
         :: repulsion energy           1.382003414842 Eh    ::
         :: add. restraining           0.000000000000 Eh    ::
         :: total charge              -1.000000000000 e     ::
         :::::::::::::::::::::::::::::::::::::::::::::::::::::

           -------------------------------------------------
          |                Property Printout                |
           -------------------------------------------------

    * Orbital Energies and Occupations

         #    Occupation            Energy/Eh            Energy/eV
      -------------------------------------------------------------
         1        2.0000           -0.6706665             -18.2498
       ...           ...                  ...                  ...
        95        2.0000           -0.3448368              -9.3835
        96        2.0000           -0.3396903              -9.2434
        97        2.0000           -0.3335470              -9.0763
        98        2.0000           -0.3315031              -9.0207
        99        2.0000           -0.3277862              -8.9195
       100        2.0000           -0.3204911              -8.7210
       101        2.0000           -0.3169552              -8.6248
       102        2.0000           -0.3142660              -8.5516
       103        2.0000           -0.3069492              -8.3525
       104        2.0000           -0.2969001              -8.0791
       105        2.0000           -0.2264843              -6.1630
       106        2.0000           -0.2199560              -5.9853
       107        1.9864           -0.1964716              -5.3463 (HOMO)
       108        0.0136           -0.1869994              -5.0885 (LUMO)
       109        0.0000           -0.1760984              -4.7919
       110                         -0.1738678              -4.7312
       111                         -0.1685327              -4.5860
       112                         -0.1617576              -4.4016
       113                         -0.1585839              -4.3153
       114                         -0.1538716              -4.1871
       115                         -0.1499068              -4.0792
       116                         -0.1072971              -2.9197
       117                         -0.0305880              -0.8323
       118                         -0.0143545              -0.3906
       ...                                ...                  ...
       190                          0.8262768              22.4841
      -------------------------------------------------------------
                  HL-Gap            0.0094722 Eh            0.2578 eV
             Fermi-level           -0.1917355 Eh           -5.2174 eV

     #   Z          covCN         q      C6AA      α(0)
     1   7 N        2.688    -0.210    25.581     7.512
     2   6 C        3.723    -0.015    20.958     6.537
     3   6 C        2.747     0.253    22.748     7.810
     4   8 O        0.857    -0.426    22.206     6.318
     5   7 N        2.678    -0.219    25.781     7.541
     6   6 C        3.790     0.020    20.242     6.408
     7   6 C        2.789     0.271    22.416     7.755
     8   6 C        3.828     0.031    20.034     6.369
     9   8 O        0.860    -0.437    22.442     6.351
    10   7 N        2.749    -0.206    25.469     7.495
    11   6 C        3.797    -0.055    21.558     6.611
    12   6 C        2.783     0.289    22.110     7.702
    13   6 C        3.786    -0.101    22.435     6.746
    14   6 C        3.744    -0.031    21.200     6.568
    15   8 O        0.859    -0.393    21.537     6.222
    16   6 C        2.670     0.361    20.881     7.477
    17   7 N        2.672    -0.182    24.952     7.419
    18   8 O        0.857    -0.603    26.202     6.863
    19   8 O        0.856    -0.536    24.595     6.649
    20   6 C        2.746     0.249    22.818     7.822
    21   6 C        3.787     0.026    20.155     6.394
    22   8 O        0.858    -0.450    22.705     6.389
    23   7 N        2.689    -0.195    25.224     7.459
    24   6 C        3.746    -0.123    22.930     6.831
    25   6 C        2.756     0.275    22.346     7.741
    26   6 C        3.760    -0.022    21.022     6.536
    27   8 O        0.860    -0.450    22.695     6.387
    28   7 N        2.691    -0.158    24.428     7.341
    29   6 C        2.755     0.271    22.423     7.754
    30   8 O        0.859    -0.439    22.471     6.356
    31   6 C        3.776    -0.053    21.561     6.616
    32   6 C        3.032    -0.035    28.850     8.810
    33   6 C        2.955     0.007    27.855     8.657
    34   6 C        3.118    -0.011    28.123     8.686
    35   7 N        2.778    -0.108    23.353     7.177
    36   6 C        3.038     0.044    26.983     8.520
    37   6 C        2.898    -0.035    28.876     8.811
    38   6 C        2.903    -0.054    29.336     8.881
    39   6 C        2.950    -0.056    29.393     8.892
    40   6 C        2.932    -0.049    29.222     8.865
    41   1 H        0.860     0.175     1.244     1.747
    42   1 H        0.912     0.095     1.835     2.119
    43   1 H        0.927     0.087     1.905     2.158
    44   1 H        0.861     0.174     1.247     1.749
    45   1 H        0.925     0.064     2.150     2.293
    46   1 H        0.922     0.044     2.398     2.422
    47   1 H        0.861     0.197     1.120     1.658
    48   1 H        0.920     0.034     2.532     2.489
    49   1 H        0.914     0.078     2.001     2.213
    50   1 H        0.922    -0.005     3.139     2.771
    51   1 H        0.927     0.022     2.704     2.571
    52   1 H        0.925     0.085     1.929     2.172
    53   1 H        0.911     0.083     1.953     2.186
    54   1 H        0.857     0.173     1.252     1.753
    55   1 H        0.926     0.077     2.009     2.216
    56   1 H        0.857     0.176     1.235     1.741
    57   1 H        0.927     0.062     2.170     2.303
    58   1 H        0.922     0.050     2.326     2.385
    59   1 H        0.916     0.088     1.903     2.158
    60   1 H        0.923     0.060     2.201     2.320
    61   1 H        0.925     0.104     1.749     2.068
    62   1 H        0.859     0.195     1.132     1.666
    63   1 H        0.907     0.059     2.216     2.329
    64   1 H        0.925     0.087     1.910     2.161
    65   1 H        0.922     0.051     2.305     2.374
    66   1 H        0.859     0.151     1.396     1.851
    67   1 H        0.923     0.030     2.586     2.515
    68   1 H        0.927     0.026     2.649     2.545
    69   1 H        0.926     0.013     2.845     2.638
    70   1 H        0.923     0.021     2.718     2.578

 Mol. C6AA /au·bohr⁶  :      56129.228671
 Mol. C8AA /au·bohr⁸  :    1291344.778904
 Mol. α(0) /au        :        359.428512


Wiberg/Mayer (AO) data.
largest (>0.10) Wiberg bond orders for each atom

 ---------------------------------------------------------------------------
     #   Z sym  total        # sym  WBO       # sym  WBO       # sym  WBO
 ---------------------------------------------------------------------------
     1   7 N    3.382 --     7 C    1.177     2 C    0.998    41 H    0.940
                             9 O    0.171
     2   6 C    3.958 --     1 N    0.998     3 C    0.954    42 H    0.949
                            43 H    0.942
     3   6 C    3.945 --     4 O    1.713     5 N    1.195     2 C    0.954
     4   8 O    2.004 --     3 C    1.713     5 N    0.170
     5   7 N    3.354 --     3 C    1.195     6 C    0.969    44 H    0.931
                             4 O    0.170
     6   6 C    3.952 --     5 N    0.969    31 C    0.963    45 H    0.946
                            29 C    0.924
     7   6 C    3.944 --     9 O    1.680     1 N    1.177     8 C    0.976
     8   6 C    3.966 --    10 N    0.983     7 C    0.976    46 H    0.942
                            11 C    0.939
     9   8 O    2.024 --     7 C    1.680     1 N    0.171
    10   7 N    3.413 --    12 C    1.218     8 C    0.983    47 H    0.910
                            15 O    0.208
    11   6 C    3.973 --    13 C    1.014    48 H    0.975    49 H    0.957
                             8 C    0.939
    12   6 C    3.958 --    15 O    1.723    10 N    1.218    14 C    0.973
    13   6 C    3.951 --    11 C    1.014    51 H    0.976    50 H    0.966
                            16 C    0.837
    14   6 C    3.949 --    12 C    0.973    52 H    0.966    53 H    0.949
                            17 N    0.947
    15   8 O    2.054 --    12 C    1.723    10 N    0.208
    16   6 C    3.942 --    19 O    1.603    18 O    1.482    13 C    0.837
    17   7 N    3.439 --    20 C    1.286    14 C    0.947    54 H    0.935
                            22 O    0.201
    18   8 O    1.803 --    16 C    1.482    19 O    0.234
    19   8 O    1.929 --    16 C    1.603    18 O    0.234
    20   6 C    3.945 --    22 O    1.649    17 N    1.286    21 C    0.939
    21   6 C    3.955 --    24 C    1.007    23 N    0.956    55 H    0.947
                            20 C    0.939
    22   8 O    1.977 --    20 C    1.649    17 N    0.201
    23   7 N    3.412 --    25 C    1.255    21 C    0.956    56 H    0.929
                            27 O    0.186
    24   6 C    3.977 --    21 C    1.007    57 H    0.983    58 H    0.981
                            59 H    0.964
    25   6 C    3.947 --    27 O    1.665    23 N    1.255    26 C    0.964
    26   6 C    3.971 --    28 N    0.995    25 C    0.964    60 H    0.955
                            61 H    0.939
    27   8 O    1.983 --    25 C    1.665    23 N    0.186
    28   7 N    3.460 --    29 C    1.285    26 C    0.995    62 H    0.913
                            30 O    0.196
    29   6 C    3.951 --    30 O    1.671    28 N    1.285     6 C    0.924
    30   8 O    2.005 --    29 C    1.671    28 N    0.196
    31   6 C    3.977 --    32 C    1.010    64 H    0.969    63 H    0.967
                             6 C    0.963
    32   6 C    3.972 --    33 C    1.589    34 C    1.186    31 C    1.010
    33   6 C    3.952 --    32 C    1.589    35 N    1.203    65 H    0.964
    34   6 C    3.982 --    37 C    1.356    36 C    1.241    32 C    1.186
    35   7 N    3.517 --    33 C    1.203    36 C    1.151    66 H    0.945
    36   6 C    3.956 --    38 C    1.351    34 C    1.241    35 N    1.151
    37   6 C    3.989 --    39 C    1.481    34 C    1.356    67 H    0.967
                            38 C    0.109
    38   6 C    3.986 --    40 C    1.477    36 C    1.351    68 H    0.969
                            37 C    0.109
    39   6 C    3.988 --    37 C    1.481    40 C    1.377    69 H    0.975
    40   6 C    3.984 --    38 C    1.477    39 C    1.377    70 H    0.970
    41   1 H    0.969 --     1 N    0.940
    42   1 H    0.991 --     2 C    0.949
    43   1 H    0.992 --     2 C    0.942
    44   1 H    0.969 --     5 N    0.931
    45   1 H    0.996 --     6 C    0.946
    46   1 H    0.998 --     8 C    0.942
    47   1 H    0.961 --    10 N    0.910
    48   1 H    0.999 --    11 C    0.975
    49   1 H    0.994 --    11 C    0.957
    50   1 H    1.000 --    13 C    0.966
    51   1 H    0.999 --    13 C    0.976
    52   1 H    0.992 --    14 C    0.966
    53   1 H    0.993 --    14 C    0.949
    54   1 H    0.970 --    17 N    0.935
    55   1 H    0.994 --    21 C    0.947
    56   1 H    0.968 --    23 N    0.929
    57   1 H    0.996 --    24 C    0.983
    58   1 H    0.997 --    24 C    0.981
    59   1 H    0.992 --    24 C    0.964
    60   1 H    0.996 --    26 C    0.955
    61   1 H    0.988 --    26 C    0.939
    62   1 H    0.962 --    28 N    0.913
    63   1 H    0.996 --    31 C    0.967
    64   1 H    0.992 --    31 C    0.969
    65   1 H    0.996 --    33 C    0.964
    66   1 H    0.977 --    35 N    0.945
    67   1 H    0.999 --    37 C    0.967
    68   1 H    0.999 --    38 C    0.969
    69   1 H    0.999 --    39 C    0.975
    70   1 H    0.999 --    40 C    0.970
 ---------------------------------------------------------------------------

Topologies differ in total number of bonds
Writing topology from bond orders to xtbtopo.mol

molecular dipole:
                 x           y           z       tot (Debye)
 q only:        2.267       8.848       7.933
   full:        2.098       8.793       8.344      31.268
molecular quadrupole (traceless):
                xx          xy          yy          xz          yz          zz
 q only:       44.013     -39.994     -28.955     -37.499    -125.147     -15.058
  q+dip:       31.379     -39.826     -23.503     -37.123    -134.111      -7.876
   full:       33.475     -40.674     -25.801     -39.148    -132.899      -7.673


           -------------------------------------------------
          | TOTAL ENERGY             -122.041109170084 Eh   |
          | GRADIENT NORM               0.292186664112 Eh/α |
          | HOMO-LUMO GAP               0.257751374425 eV   |
           -------------------------------------------------

------------------------------------------------------------------------
 * finished run on 2026/05/23 at 08:18:54.699     
------------------------------------------------------------------------
 total:
 * wall-time:     0 d,  0 h,  0 min, 17.833 sec
 *  cpu-time:     0 d,  0 h,  0 min, 25.606 sec
 * ratio c/w:     1.436 speedup
 SCF:
 * wall-time:     0 d,  0 h,  0 min, 17.290 sec
 *  cpu-time:     0 d,  0 h,  0 min, 25.067 sec
 * ratio c/w:     1.450 speedup

normal termination of xtb
