      -----------------------------------------------------------      
     |                   =====================                   |     
     |                           x T B                           |     
     |                   =====================                   |     
     |                         S. Grimme                         |     
     |          Mulliken Center for Theoretical Chemistry        |     
     |                    University of Bonn                     |     
      -----------------------------------------------------------      

   * xtb version 6.7.1 (26dd68d) compiled by 'froitzheim@fs7' on 2026-05-14

   xtb is free software: you can redistribute it and/or modify it under
   the terms of the GNU Lesser General Public License as published by
   the Free Software Foundation, either version 3 of the License, or
   (at your option) any later version.
   
   xtb is distributed in the hope that it will be useful,
   but WITHOUT ANY WARRANTY; without even the implied warranty of
   MERCHANTABILITY or FITNESS FOR A PARTICULAR PURPOSE.  See the
   GNU Lesser General Public License for more details.
   
   Cite this work as:
   * C. Bannwarth, E. Caldeweyher, S. Ehlert, A. Hansen, P. Pracht,
     J. Seibert, S. Spicher, S. Grimme, WIREs Comput. Mol. Sci., 2020, 11,
     e01493. DOI: 10.1002/wcms.1493
   
   for g-xTB:
   * T. Froitzheim, M. Müller, A. Hansen, S. Grimme, ChemRxiv, 2025, preprint.
     DOI: 10.26434/chemrxiv-2025-bjxv
   for GFN2-xTB:
   * C. Bannwarth, S. Ehlert and S. Grimme., J. Chem. Theory Comput., 2019,
     15, 1652-1671. DOI: 10.1021/acs.jctc.8b01176
   for GFN1-xTB:
   * S. Grimme, C. Bannwarth, P. Shushkov, J. Chem. Theory Comput., 2017,
     13, 1989-2009. DOI: 10.1021/acs.jctc.7b00118
   for GFN0-xTB:
   * P. Pracht, E. Caldeweyher, S. Ehlert, S. Grimme, ChemRxiv, 2019, preprint.
     DOI: 10.26434/chemrxiv.8326202.v1
   for GFN-FF:
   * S. Spicher and S. Grimme, Angew. Chem. Int. Ed., 2020, 59, 15665-15673.
     DOI: 10.1002/anie.202004239
   
   for ALPB and GBSA implicit solvation:
   * S. Ehlert, M. Stahn, S. Spicher, S. Grimme, J. Chem. Theory Comput.,
     2021, 17, 4250-4261. DOI: 10.1021/acs.jctc.1c00471
   
   for ddCOSMO and CPCM-X implicit solvation:
   * M. Stahn, S. Ehlert, S. Grimme, J. Phys. Chem. A,
     2023, XX, XXXX-XXXX. DOI: 10.1021/acs.jpca.3c04382
   
   for DFT-D4:
   * E. Caldeweyher, C. Bannwarth and S. Grimme, J. Chem. Phys., 2017,
     147, 034112. DOI: 10.1063/1.4993215
   * E. Caldeweyher, S. Ehlert, A. Hansen, H. Neugebauer, S. Spicher,
     C. Bannwarth and S. Grimme, J. Chem. Phys., 2019, 150, 154122.
     DOI: 10.1063/1.5090222
   * E. Caldeweyher, J.-M. Mewes, S. Ehlert and S. Grimme, Phys. Chem. Chem. Phys.
     2020, 22, 8499-8512. DOI: 10.1039/D0CP00502A
   
   for sTDA-xTB:
   * S. Grimme and C. Bannwarth, J. Chem. Phys., 2016, 145, 054103.
     DOI: 10.1063/1.4959605
   
   in the mass-spec context:
   * V. Asgeirsson, C. Bauer and S. Grimme, Chem. Sci., 2017, 8, 4879.
     DOI: 10.1039/c7sc00601b
   * J. Koopman and S. Grimme, ACS Omega 2019, 4, 12, 15120-15133.
     DOI: 10.1021/acsomega.9b02011
   
   for metadynamics refer to:
   * S. Grimme, J. Chem. Theory Comput., 2019, 155, 2847-2862
     DOI: 10.1021/acs.jctc.9b00143
   
   for SPH calculations refer to:
   * S. Spicher and S. Grimme, J. Chem. Theory Comput., 2021, 17, 1701-1714
     DOI: 10.1021/acs.jctc.0c01306
   
   for ONIOM refer to:
   * C. Plett, A. Katbashev, S. Ehlert, S. Grimme, M. Bursch,
     Phys. Chem. Chem. Phys., 2023, 25, 17860-17868. DOI: 10.1039/D3CP02178E
   
   for DIPRO refer to:
   * J. Kohn, N. Gildemeister, S. Grimme, D. Fazzi, A. Hansen,
     J. Chem. Phys. 159, 144106 (2023). DOI: 10.1063/5.0167484
   
   for PTB refer to:
   * S. Grimme, M. Mueller, A. Hansen, J. Chem. Phys., 2023, 158, 124111.
     DOI: 10.1063/5.0137838
   
   with help from (in alphabetical order)
   P. Atkinson, C. Bannwarth, F. Bohle, G. Brandenburg, E. Caldeweyher,
   M. Checinski, S. Dohm, S. Ehlert, S. Ehrlich, M. Friede, T. Froitzheim,
   I. Gerasimov, C. Hölzer, A. Katbashev, J. Kohn, J. Koopman, C. Lavigne,
   S. Lehtola, F. März, M. Müller, F. Musil, H. Neugebauer, J. Pisarek,
   C. Plett, P. Pracht, F. Pultar, J. Seibert, P. Shushkov, S. Spicher,
   M. Stahn, M. Steiner, T. Strunk, J. Stückrath, T. Rose, and J. Unsleber
   
 * started run on 2026/05/23 at 08:18:56.010     
   ID    Z sym.   atoms
    1    7 N      1, 5, 10, 17, 23, 28, 35
    2    6 C      2, 3, 6-8, 11-14, 16, 20, 21, 24-26, 29, 31-34, 36-40
    3    8 O      4, 9, 15, 18, 19, 22, 27, 30
    4    1 H      41-70

           -------------------------------------------------
          |                Calculation Setup                |
           -------------------------------------------------

          program call               : /home/xchen/software/xtb-6.7.1-gxtb/bin/xtb /home/xchen/Test/benchmark/md_sampled/01_6_0109_n1/snap_0186.xyz --charge -1 --gxtb --norestart
          coordinate file            : /home/xchen/Test/benchmark/md_sampled/01_6_0109_n1/snap_0186.xyz
          omp threads                :                    48

core increment energy         -1.7791297691186E+03 Eh
dispersion energy              9.8049591488020E-03 Eh
molecular charge              -1.0000000000000E+00 e
number of electrons            2.1399999999800E+02 e
number of unpaired electrons   0.0000000000000E+00 e
wavefunction                   restricted
integral cutoff                2.6907767250513E+01 bohr
energy convergence             1.0000000000000E-06 Eh
density convergence            2.0000000000000E-05 e

------------------------------------------------------------
  cycle        total energy    energy error   density error
------------------------------------------------------------
      1     -1954.944350596  -1.7582439E+02   0.0000000E+00
      2     -1955.293741450  -3.4939085E-01   2.6179940E-02
      3     -1955.512177864  -2.1843641E-01   2.0475143E-02
      4     -1955.963382628  -4.5120476E-01   1.6114557E-02
      5     -1955.971151417  -7.7687897E-03   1.1817615E-03
      6     -1955.971693192  -5.4177505E-04   1.9943740E-04
      7     -1955.971745519  -5.2326703E-05   6.5092708E-05
      8     -1955.971749479  -3.9600171E-06   1.9754976E-05
      9     -1955.971750032  -5.5247045E-07   4.4326303E-06
------------------------------------------------------------

electronic energy             -1.7685178587212E+02 Eh
total energy                  -1.9559717500316E+03 Eh

Post processing:
 | Mayer-Wiberg bond orders
 | Molecular Multipole Moments

 total:                                  13.262 sec
 - increment                              0.000 sec (  0%)
 - repulsion                              0.031 sec (  0%)
 - dispersion                             0.284 sec (  2%)
 - coulomb                                0.183 sec (  1%)
 - exchange                               0.012 sec (  0%)
 - hamiltonian                            0.466 sec (  3%)
 - acp                                    0.232 sec (  1%)
 - spin polarization                      0.000 sec (  0%)
 - post processing                        0.196 sec (  1%)
 - scc                                   11.112 sec ( 83%)
 - coulomb gradient                       0.077 sec (  0%)
 - dispersion gradient                    0.026 sec (  0%)
 - exchange gradient                      0.122 sec (  0%)
 - repulsion gradient                     0.014 sec (  0%)
 - acp gradient                           0.199 sec (  1%)
 - hamiltonian gradient                   0.500 sec (  3%)
 - gradient                               0.937 sec (  7%)

         :::::::::::::::::::::::::::::::::::::::::::::::::::::
         ::                     SUMMARY                     ::
         :::::::::::::::::::::::::::::::::::::::::::::::::::::
         :: total energy           -1955.971750031572 Eh    ::
         :: gradient norm              0.316063401226 Eh/a0 ::
         :: HOMO-LUMO gap              6.120117591348 eV    ::
         ::.................................................::
         :: add. restraining           0.000000000000 Eh    ::
         :: total charge              -1.000000000000 e     ::
         :::::::::::::::::::::::::::::::::::::::::::::::::::::

           -------------------------------------------------
          |                Property Printout                |
           -------------------------------------------------

    * Orbital Energies and Occupations
------------------------------------------------------------------
      #    Occupation            Energy/Eh            Energy/eV
------------------------------------------------------------------
      1        2.0000           -1.2802307             -34.8369
    ...           ...                  ...                  ...
     95        2.0000           -0.3129820              -8.5167
     96        2.0000           -0.3103593              -8.4453
     97        2.0000           -0.3070880              -8.3563
     98        2.0000           -0.3023053              -8.2261
     99        2.0000           -0.2961884              -8.0597
    100        2.0000           -0.2930776              -7.9750
    101        2.0000           -0.2788590              -7.5881
    102        2.0000           -0.2769786              -7.5370
    103        2.0000           -0.2614151              -7.1135
    104        2.0000           -0.2521990              -6.8627
    105        2.0000           -0.1920417              -5.2257
    106        2.0000           -0.1843955              -5.0177
    107        2.0000           -0.1617002              -4.4001 (HOMO)
    108                          0.0632100               1.7200 (LUMO)
    109                          0.0686015               1.8667
    110                          0.0807863               2.1983
    111                          0.0844665               2.2985
    112                          0.0880256               2.3953
    113                          0.0911460               2.4802
    114                          0.0985544               2.6818
    115                          0.1037008               2.8218
    116                          0.1493391               4.0637
    117                          0.2203715               5.9966
    118                          0.2296647               6.2495
    ...                                ...                  ...
    190                          0.9629805              26.2040
------------------------------------------------------------------
               HL-Gap            0.2249102 Eh            6.1201 eV
------------------------------------------------------------------

Atomic charges and shell populations (in atomic units):
------------------------------------------------------
     #    Z                q          p(s)       p(p)
------------------------------------------------------
     1    7 N      -0.370081      1.359051   4.011030
     2    6 C      -0.057333      1.132236   2.925097
     3    6 C       0.381685      1.129183   2.489132
     4    8 O      -0.529283      1.861129   4.668154
     5    7 N      -0.374619      1.394353   3.980266
     6    6 C      -0.007471      1.141446   2.866024
     7    6 C       0.417214      1.109697   2.473090
     8    6 C      -0.015387      1.116922   2.898465
     9    8 O      -0.537334      1.848820   4.688514
    10    7 N      -0.360980      1.383333   3.977647
    11    6 C      -0.154016      1.151794   3.002222
    12    6 C       0.421425      1.072976   2.505598
    13    6 C      -0.243131      1.176779   3.066352
    14    6 C      -0.072902      1.151770   2.921132
    15    8 O      -0.489108      1.850084   4.639024
    16    6 C       0.522382      1.081997   2.395621
    17    7 N      -0.330693      1.362062   3.968631
    18    8 O      -0.724357      1.864087   4.860270
    19    8 O      -0.637096      1.852183   4.784913
    20    6 C       0.384750      1.107263   2.507987
    21    6 C      -0.010398      1.124878   2.885520
    22    8 O      -0.564525      1.859747   4.704778
    23    7 N      -0.337480      1.380792   3.956688
    24    6 C      -0.258367      1.165051   3.093316
    25    6 C       0.400718      1.097252   2.502030
    26    6 C      -0.075428      1.132365   2.943063
    27    8 O      -0.556589      1.854365   4.702224
    28    7 N      -0.320282      1.346474   3.973808
    29    6 C       0.419710      1.093378   2.486912
    30    8 O      -0.557464      1.853786   4.703679
    31    6 C      -0.108258      1.148578   2.959680
    32    6 C      -0.106480      1.129002   2.977478
    33    6 C      -0.000089      1.145519   2.854569
    34    6 C      -0.039136      1.119046   2.920091
    35    7 N      -0.253532      1.349650   3.903882
    36    6 C       0.059069      1.103736   2.837195
    37    6 C      -0.093808      1.150150   2.943658
    38    6 C      -0.134447      1.142369   2.992078
    39    6 C      -0.147916      1.158269   2.989647
    40    6 C      -0.127864      1.155747   2.972116
    41    1 H       0.259948      0.740052
    42    1 H       0.150237      0.849763
    43    1 H       0.140238      0.859762
    44    1 H       0.254320      0.745680
    45    1 H       0.126289      0.873711
    46    1 H       0.116412      0.883588
    47    1 H       0.278851      0.721149
    48    1 H       0.099172      0.900828
    49    1 H       0.138100      0.861900
    50    1 H       0.068630      0.931370
    51    1 H       0.094666      0.905334
    52    1 H       0.132134      0.867866
    53    1 H       0.131919      0.868081
    54    1 H       0.263802      0.736198
    55    1 H       0.139447      0.860553
    56    1 H       0.263814      0.736186
    57    1 H       0.108068      0.891932
    58    1 H       0.099095      0.900905
    59    1 H       0.130729      0.869271
    60    1 H       0.113380      0.886620
    61    1 H       0.154809      0.845191
    62    1 H       0.284507      0.715493
    63    1 H       0.108866      0.891134
    64    1 H       0.133599      0.866401
    65    1 H       0.131554      0.868446
    66    1 H       0.254758      0.745242
    67    1 H       0.110489      0.889511
    68    1 H       0.113047      0.886953
    69    1 H       0.089113      0.910887
    70    1 H       0.098905      0.901095
------------------------------------------------------


Wiberg/Mayer (AO) data.
largest (>0.10) Wiberg bond orders for each atom

 ---------------------------------------------------------------------------
     #   Z sym  total        # sym  WBO       # sym  WBO       # sym  WBO
 ---------------------------------------------------------------------------
     1   7 N    3.279 --     7 C    1.144     2 C    0.988    41 O    0.901
                             9 C    0.143
     2   6 C    3.911 --     1 N    0.988     3 C    0.943    43 O    0.935
                            42 O    0.932
     3   6 C    3.861 --     4 C    1.679     5 N    1.159     2 C    0.943
     4   8 C    1.939 --     3 C    1.679     5 N    0.144
     5   7 N    3.249 --     3 C    1.159     6 C    0.957    44 O    0.892
                             4 C    0.144
     6   6 C    3.921 --    31 C    0.964     5 N    0.957    45 O    0.934
                            29 C    0.917
     7   6 C    3.848 --     9 C    1.670     1 N    1.144     8 C    0.952
     8   6 C    3.929 --    10 N    0.967     7 C    0.952    11 C    0.951
                            46 O    0.928
     9   8 C    1.976 --     7 C    1.670     1 N    0.143
    10   7 N    3.294 --    12 C    1.185     8 C    0.967    47 O    0.867
                            15 C    0.175
    11   6 C    3.938 --    13 C    1.014    48 O    0.956     8 C    0.951
                            49 O    0.934
    12   6 C    3.894 --    15 C    1.705    10 N    1.185    14 C    0.962
    13   6 C    3.944 --    11 C    1.014    51 O    0.961    50 O    0.960
                            16 C    0.857
    14   6 C    3.900 --    12 C    0.962    52 O    0.949    53 O    0.943
                            17 N    0.936
    15   8 C    2.000 --    12 C    1.705    10 N    0.175
    16   6 C    3.862 --    19 C    1.558    18 C    1.426    13 C    0.857
    17   7 N    3.345 --    20 C    1.278    14 C    0.936    54 O    0.891
                            22 C    0.170
    18   8 C    1.702 --    16 C    1.426    19 C    0.198
    19   8 C    1.849 --    16 C    1.558    18 C    0.198
    20   6 C    3.882 --    22 C    1.607    17 N    1.278    21 C    0.929
    21   6 C    3.924 --    24 C    1.009    23 N    0.946    55 O    0.932
                            20 C    0.929
    22   8 C    1.906 --    20 C    1.607    17 N    0.170
    23   7 N    3.319 --    25 C    1.235    21 C    0.946    56 O    0.889
                            27 C    0.158
    24   6 C    3.942 --    21 C    1.009    58 O    0.972    57 O    0.969
                            59 O    0.949
    25   6 C    3.877 --    27 C    1.631    23 N    1.235    26 C    0.953
    26   6 C    3.926 --    28 N    0.984    25 C    0.953    60 O    0.944
                            61 O    0.930
    27   8 C    1.916 --    25 C    1.631    23 N    0.158
    28   7 N    3.353 --    29 C    1.259    26 C    0.984    62 O    0.868
                            30 C    0.165
    29   6 C    3.873 --    30 C    1.631    28 N    1.259     6 C    0.917
    30   8 C    1.926 --    29 C    1.631    28 N    0.165
    31   6 C    3.947 --    32 C    1.009     6 C    0.964    63 O    0.954
                            64 O    0.953
    32   6 C    3.953 --    33 C    1.592    34 C    1.164    31 C    1.009
    33   6 C    3.916 --    32 C    1.592    35 N    1.194    65 O    0.947
    34   6 C    3.971 --    37 C    1.344    36 C    1.261    32 C    1.164
    35   7 N    3.443 --    33 C    1.194    36 C    1.129    66 O    0.901
    36   6 C    3.940 --    38 C    1.342    34 C    1.261    35 N    1.129
    37   6 C    3.966 --    39 C    1.483    34 C    1.344    67 O    0.953
                            38 C    0.116
    38   6 C    3.962 --    40 C    1.480    36 C    1.342    68 O    0.953
                            37 C    0.116
    39   6 C    3.965 --    37 C    1.483    40 C    1.370    69 O    0.960
    40   6 C    3.964 --    38 C    1.480    39 C    1.370    70 O    0.957
    41   1 O    0.932 --     1 N    0.901
    42   1 O    0.977 --     2 C    0.932
    43   1 O    0.980 --     2 C    0.935
    44   1 O    0.935 --     5 N    0.892
    45   1 O    0.984 --     6 C    0.934
    46   1 O    0.986 --     8 C    0.928
    47   1 O    0.922 --    10 N    0.867
    48   1 O    0.990 --    11 C    0.956
    49   1 O    0.981 --    11 C    0.934
    50   1 O    0.995 --    13 C    0.960
    51   1 O    0.991 --    13 C    0.961
    52   1 O    0.983 --    14 C    0.949
    53   1 O    0.983 --    14 C    0.943
    54   1 O    0.930 --    17 N    0.891
    55   1 O    0.981 --    21 C    0.932
    56   1 O    0.930 --    23 N    0.889
    57   1 O    0.988 --    24 C    0.969
    58   1 O    0.990 --    24 C    0.972
    59   1 O    0.983 --    24 C    0.949
    60   1 O    0.987 --    26 C    0.944
    61   1 O    0.976 --    26 C    0.930
    62   1 O    0.919 --    28 N    0.868
    63   1 O    0.988 --    31 C    0.954
    64   1 O    0.982 --    31 C    0.953
    65   1 O    0.983 --    33 C    0.947
    66   1 O    0.935 --    35 N    0.901
    67   1 O    0.988 --    37 C    0.953
    68   1 O    0.987 --    38 C    0.953
    69   1 O    0.992 --    39 C    0.960
    70   1 O    0.990 --    40 C    0.957
 ---------------------------------------------------------------------------

Topologies differ in total number of bonds
Writing topology from bond orders to xtbtopo.mol

Atomic dipole moments (in atomic units):
---------------------------------------------------------
     #    Z                 x            y            z
---------------------------------------------------------
           total     1.969576     9.254935     8.840933
---------------------------------------------------------
         |total|    12.949716    32.914895 Debye


           -------------------------------------------------
          | TOTAL ENERGY            -1955.971750031572 Eh   |
          | GRADIENT NORM               0.316063401226 Eh/α |
           -------------------------------------------------

------------------------------------------------------------------------
 * finished run on 2026/05/23 at 08:19:10.065     
------------------------------------------------------------------------
 total:
 * wall-time:     0 d,  0 h,  0 min, 14.055 sec
 *  cpu-time:     0 d,  0 h,  0 min, 27.409 sec
 * ratio c/w:     1.950 speedup
 SCF:
 * wall-time:     0 d,  0 h,  0 min, 13.646 sec
 *  cpu-time:     0 d,  0 h,  0 min, 27.168 sec
 * ratio c/w:     1.991 speedup

normal termination of xtb
