      -----------------------------------------------------------      
     |                   =====================                   |     
     |                           x T B                           |     
     |                   =====================                   |     
     |                         S. Grimme                         |     
     |          Mulliken Center for Theoretical Chemistry        |     
     |                    University of Bonn                     |     
      -----------------------------------------------------------      

   * xtb version 6.7.1 (edcfbbe) compiled by 'albert@albert-system' on 2024-07-22

   xtb is free software: you can redistribute it and/or modify it under
   the terms of the GNU Lesser General Public License as published by
   the Free Software Foundation, either version 3 of the License, or
   (at your option) any later version.
   
   xtb is distributed in the hope that it will be useful,
   but WITHOUT ANY WARRANTY; without even the implied warranty of
   MERCHANTABILITY or FITNESS FOR A PARTICULAR PURPOSE.  See the
   GNU Lesser General Public License for more details.
   
   Cite this work as:
   * C. Bannwarth, E. Caldeweyher, S. Ehlert, A. Hansen, P. Pracht,
     J. Seibert, S. Spicher, S. Grimme, WIREs Comput. Mol. Sci., 2020, 11,
     e01493. DOI: 10.1002/wcms.1493
   
   for GFN2-xTB:
   * C. Bannwarth, S. Ehlert and S. Grimme., J. Chem. Theory Comput., 2019,
     15, 1652-1671. DOI: 10.1021/acs.jctc.8b01176
   for GFN1-xTB:
   * S. Grimme, C. Bannwarth, P. Shushkov, J. Chem. Theory Comput., 2017,
     13, 1989-2009. DOI: 10.1021/acs.jctc.7b00118
   for GFN0-xTB:
   * P. Pracht, E. Caldeweyher, S. Ehlert, S. Grimme, ChemRxiv, 2019, preprint.
     DOI: 10.26434/chemrxiv.8326202.v1
   for GFN-FF:
   * S. Spicher and S. Grimme, Angew. Chem. Int. Ed., 2020, 59, 15665-15673.
     DOI: 10.1002/anie.202004239
   
   for ALPB and GBSA implicit solvation:
   * S. Ehlert, M. Stahn, S. Spicher, S. Grimme, J. Chem. Theory Comput.,
     2021, 17, 4250-4261. DOI: 10.1021/acs.jctc.1c00471
   
   for ddCOSMO and CPCM-X implicit solvation:
   * M. Stahn, S. Ehlert, S. Grimme, J. Phys. Chem. A,
     2023, XX, XXXX-XXXX. DOI: 10.1021/acs.jpca.3c04382
   
   for DFT-D4:
   * E. Caldeweyher, C. Bannwarth and S. Grimme, J. Chem. Phys., 2017,
     147, 034112. DOI: 10.1063/1.4993215
   * E. Caldeweyher, S. Ehlert, A. Hansen, H. Neugebauer, S. Spicher,
     C. Bannwarth and S. Grimme, J. Chem. Phys., 2019, 150, 154122.
     DOI: 10.1063/1.5090222
   * E. Caldeweyher, J.-M. Mewes, S. Ehlert and S. Grimme, Phys. Chem. Chem. Phys.
     2020, 22, 8499-8512. DOI: 10.1039/D0CP00502A
   
   for sTDA-xTB:
   * S. Grimme and C. Bannwarth, J. Chem. Phys., 2016, 145, 054103.
     DOI: 10.1063/1.4959605
   
   in the mass-spec context:
   * V. Asgeirsson, C. Bauer and S. Grimme, Chem. Sci., 2017, 8, 4879.
     DOI: 10.1039/c7sc00601b
   * J. Koopman and S. Grimme, ACS Omega 2019, 4, 12, 15120-15133.
     DOI: 10.1021/acsomega.9b02011
   
   for metadynamics refer to:
   * S. Grimme, J. Chem. Theory Comput., 2019, 155, 2847-2862
     DOI: 10.1021/acs.jctc.9b00143
   
   for SPH calculations refer to:
   * S. Spicher and S. Grimme, J. Chem. Theory Comput., 2021, 17, 1701-1714
     DOI: 10.1021/acs.jctc.0c01306
   
   for ONIOM refer to:
   * C. Plett, A. Katbashev, S. Ehlert, S. Grimme, M. Bursch,
     Phys. Chem. Chem. Phys., 2023, 25, 17860-17868. DOI: 10.1039/D3CP02178E
   
   for DIPRO refer to:
   * J. Kohn, N. Gildemeister, S. Grimme, D. Fazzi, A. Hansen,
     J. Chem. Phys., 2023, just accepted.
   
   for PTB refer to:
   * S. Grimme, M. Mueller, A. Hansen, J. Chem. Phys., 2023, 158, 124111.
     DOI: 10.1063/5.0137838
   
   with help from (in alphabetical order)
   P. Atkinson, C. Bannwarth, F. Bohle, G. Brandenburg, E. Caldeweyher
   M. Checinski, S. Dohm, S. Ehlert, S. Ehrlich, I. Gerasimov, C. Hölzer
   A. Katbashev, J. Kohn, J. Koopman, C. Lavigne, S. Lehtola, F. März, M. Müller,
   F. Musil, H. Neugebauer, J. Pisarek, C. Plett, P. Pracht, F. Pultar,
   J. Seibert, P. Shushkov, S. Spicher, M. Stahn, M. Steiner, T. Strunk,
   J. Stückrath, T. Rose, and J. Unsleber
   
 * started run on 2026/05/23 at 13:01:25.775     
   ID    Z sym.   atoms
    1    7 N      1, 5, 10, 17, 27, 34, 39, 43, 54, 56, 57
    2    6 C      2, 3, 6-8, 11-14, 16, 18, 21-23, 28-31, 33, 35-38, 40,
                  44-48, 50-53, 55, 58
    3    8 O      4, 9, 15, 19, 20, 24-26, 32, 41, 49
    4   16 S      42
    5    1 H      59-117

           -------------------------------------------------
          |                Calculation Setup                |
           -------------------------------------------------

          program call               : /home/xchen/software/xtb-6.7.1/xtb-dist/bin/xtb /home/xchen/Test/benchmark/md_sampled/04_7_0231_n2/snap_0174.xyz --charge -2 --gfn 2 --norestart
          coordinate file            : /home/xchen/Test/benchmark/md_sampled/04_7_0231_n2/snap_0174.xyz
          omp threads                :                    48


           -------------------------------------------------
          |                 G F N 2 - x T B                 |
           -------------------------------------------------

        Reference                      10.1021/acs.jctc.8b01176
      * Hamiltonian:
        H0-scaling (s, p, d)           1.850000    2.230000    2.230000
        zeta-weighting                 0.500000
      * Dispersion:
        s8                             2.700000
        a1                             0.520000
        a2                             5.000000
        s9                             5.000000
      * Repulsion:
        kExp                           1.500000    1.000000
        rExp                           1.000000
      * Coulomb:
        alpha                          2.000000
        third order                    shell-resolved
        anisotropic                    true
        a3                             3.000000
        a5                             4.000000
        cn-shift                       1.200000
        cn-exp                         4.000000
        max-rad                        5.000000


          ...................................................
          :                      SETUP                      :
          :.................................................:
          :  # basis functions                 297          :
          :  # atomic orbitals                 296          :
          :  # shells                          176          :
          :  # electrons                       328          :
          :  max. iterations                   250          :
          :  Hamiltonian                  GFN2-xTB          :
          :  restarted?                      false          :
          :  GBSA solvation                  false          :
          :  PC potential                    false          :
          :  electronic temp.          300.0000000     K    :
          :  accuracy                    1.0000000          :
          :  -> integral cutoff          0.2500000E+02      :
          :  -> integral neglect         0.1000000E-07      :
          :  -> SCF convergence          0.1000000E-05 Eh   :
          :  -> wf. convergence          0.1000000E-03 e    :
          :  Broyden damping             0.4000000          :
          :  net charge                         -2          :
          :  unpaired electrons                  0          :
          ...................................................

 iter      E             dE          RMSdq      gap      omega  full diag
   1   -186.9666942 -0.186967E+03  0.414E+00    3.56       0.0  T
   2   -187.4472206 -0.480526E+00  0.215E+00    2.14       1.0  T
   3   -187.4743478 -0.271272E-01  0.115E+00    1.02       1.0  T
   4   -186.2230512  0.125130E+01  0.226E+00    0.20       1.0  T
   5   -187.4830385 -0.125999E+01  0.234E-01    0.46       1.0  T
   6   -187.4845088 -0.147034E-02  0.128E-01    0.49       1.0  T
   7   -187.4846585 -0.149684E-03  0.809E-02    0.59       1.0  T
   8   -187.4847666 -0.108152E-03  0.669E-02    0.60       1.0  T
   9   -187.4847891 -0.224184E-04  0.634E-02    0.57       1.0  T
  10   -187.4848217 -0.326260E-04  0.601E-02    0.54       1.0  T
  11   -187.4848491 -0.274485E-04  0.576E-02    0.51       1.0  T
  12   -187.4848774 -0.282988E-04  0.549E-02    0.49       1.0  T
  13   -187.4848990 -0.215910E-04  0.528E-02    0.47       1.0  T
  14   -187.4850030 -0.104017E-03  0.428E-02    0.38       1.0  T
  15   -187.4852994 -0.296379E-03  0.120E-02    0.21       1.0  T
  16   -187.4853299 -0.305236E-04  0.386E-03    0.23       2.4  T
  17   -187.4851539  0.176060E-03  0.273E-02    0.19       1.0  T
  18   -187.4852818 -0.127898E-03  0.151E-02    0.25       1.0  T
  19   -187.4853329 -0.511275E-04  0.101E-03    0.22       9.2  T
  20   -187.4853331 -0.226172E-06  0.168E-04    0.22      55.0  T
  21   -187.4853330  0.110001E-06  0.708E-04    0.22      13.1  T

   *** convergence criteria satisfied after 21 iterations ***

         #    Occupation            Energy/Eh            Energy/eV
      -------------------------------------------------------------
         1        2.0000           -0.6026180             -16.3981
       ...           ...                  ...                  ...
       158        2.0000           -0.2160688              -5.8795
       159        2.0000           -0.1970174              -5.3611
       160        2.0000           -0.1878659              -5.1121
       161        2.0000           -0.1808124              -4.9202
       162        2.0000           -0.1578354              -4.2949
       163        2.0000           -0.1444115              -3.9296
       164        1.9741           -0.1347379              -3.6664 (HOMO)
       165        0.0259           -0.1265034              -3.4423 (LUMO)
       166        0.0000           -0.1166245              -3.1735
       167                         -0.1060979              -2.8871
       168                         -0.0943671              -2.5679
       169                         -0.0925519              -2.5185
       ...                                ...                  ...
       296                          0.8881104              24.1667
      -------------------------------------------------------------
                  HL-Gap            0.0082345 Eh            0.2241 eV
             Fermi-level           -0.1306206 Eh           -3.5544 eV

 SCC (total)                   0 d,  0 h,  0 min,  3.497 sec
 SCC setup                      ...        0 min,  0.007 sec (  0.210%)
 Dispersion                     ...        0 min,  0.030 sec (  0.845%)
 classical contributions        ...        0 min,  0.003 sec (  0.078%)
 integral evaluation            ...        0 min,  0.047 sec (  1.352%)
 iterations                     ...        0 min,  3.301 sec ( 94.384%)
 molecular gradient             ...        0 min,  0.105 sec (  3.014%)
 printout                       ...        0 min,  0.004 sec (  0.113%)

         :::::::::::::::::::::::::::::::::::::::::::::::::::::
         ::                     SUMMARY                     ::
         :::::::::::::::::::::::::::::::::::::::::::::::::::::
         :: total energy            -185.527713993602 Eh    ::
         :: gradient norm              0.392327485695 Eh/a0 ::
         :: HOMO-LUMO gap              0.224071679107 eV    ::
         ::.................................................::
         :: SCC energy              -187.479301288916 Eh    ::
         :: -> isotropic ES            0.705923992560 Eh    ::
         :: -> anisotropic ES          0.018036782804 Eh    ::
         :: -> anisotropic XC          0.061771763218 Eh    ::
         :: -> dispersion             -0.132672144350 Eh    ::
         :: repulsion energy           1.951587295314 Eh    ::
         :: add. restraining           0.000000000000 Eh    ::
         :: total charge              -2.000000000000 e     ::
         :::::::::::::::::::::::::::::::::::::::::::::::::::::

           -------------------------------------------------
          |                Property Printout                |
           -------------------------------------------------

    * Orbital Energies and Occupations

         #    Occupation            Energy/Eh            Energy/eV
      -------------------------------------------------------------
         1        2.0000           -0.6026180             -16.3981
       ...           ...                  ...                  ...
       152        2.0000           -0.2579910              -7.0203
       153        2.0000           -0.2533399              -6.8937
       154        2.0000           -0.2491845              -6.7807
       155        2.0000           -0.2396732              -6.5218
       156        2.0000           -0.2335327              -6.3547
       157        2.0000           -0.2305566              -6.2738
       158        2.0000           -0.2160688              -5.8795
       159        2.0000           -0.1970174              -5.3611
       160        2.0000           -0.1878659              -5.1121
       161        2.0000           -0.1808124              -4.9202
       162        2.0000           -0.1578354              -4.2949
       163        2.0000           -0.1444115              -3.9296
       164        1.9741           -0.1347379              -3.6664 (HOMO)
       165        0.0259           -0.1265034              -3.4423 (LUMO)
       166        0.0000           -0.1166245              -3.1735
       167                         -0.1060979              -2.8871
       168                         -0.0943671              -2.5679
       169                         -0.0925519              -2.5185
       170                         -0.0873872              -2.3779
       171                         -0.0779379              -2.1208
       172                         -0.0694459              -1.8897
       173                         -0.0617187              -1.6795
       174                         -0.0499370              -1.3589
       175                          0.0264815               0.7206
       ...                                ...                  ...
       296                          0.8881104              24.1667
      -------------------------------------------------------------
                  HL-Gap            0.0082345 Eh            0.2241 eV
             Fermi-level           -0.1306206 Eh           -3.5544 eV

     #   Z          covCN         q      C6AA      α(0)
     1   7 N        2.667    -0.203    25.419     7.488
     2   6 C        3.772     0.026    20.170     6.400
     3   6 C        2.773     0.284    22.198     7.716
     4   8 O        0.861    -0.447    22.633     6.378
     5   7 N        2.683    -0.154    24.329     7.326
     6   6 C        3.804     0.018    20.279     6.411
     7   6 C        2.739     0.264    22.544     7.774
     8   6 C        3.781     0.022    20.233     6.408
     9   8 O        0.857    -0.450    22.710     6.389
    10   7 N        2.684    -0.207    25.507     7.501
    11   6 C        3.792    -0.055    21.570     6.614
    12   6 C        2.746     0.282    22.217     7.718
    13   6 C        3.784    -0.067    21.804     6.651
    14   6 C        3.792     0.039    19.935     6.358
    15   8 O        0.858    -0.451    22.727     6.392
    16   6 C        2.689     0.365    20.815     7.467
    17   7 N        2.693    -0.209    25.560     7.509
    18   6 C        3.766    -0.125    22.947     6.828
    19   8 O        0.856    -0.615    26.501     6.902
    20   8 O        0.858    -0.586    25.784     6.808
    21   6 C        2.741     0.266    22.507     7.768
    22   6 C        2.642     0.374    20.661     7.436
    23   6 C        3.760     0.003    20.582     6.468
    24   8 O        0.857    -0.482    23.391     6.484
    25   8 O        0.857    -0.526    24.363     6.618
    26   8 O        0.857    -0.557    25.080     6.714
    27   7 N        2.684    -0.201    25.362     7.480
    28   6 C        3.778    -0.060    21.677     6.633
    29   6 C        2.763     0.273    22.377     7.747
    30   6 C        3.766    -0.056    21.615     6.626
    31   6 C        3.794     0.036    19.977     6.365
    32   8 O        0.858    -0.395    21.575     6.228
    33   6 C        3.763    -0.079    22.058     6.695
    34   7 N        2.703    -0.190    25.111     7.442
    35   6 C        3.802    -0.059    21.644     6.624
    36   6 C        3.704     0.023    20.328     6.446
    37   6 C        2.753     0.287    22.138     7.705
    38   6 C        3.788    -0.011    20.783     6.493
    39   7 N        2.631    -0.341    28.772     7.966
    40   6 C        3.800     0.033    20.020     6.371
    41   8 O        0.870    -0.431    22.306     6.332
    42  16 S        1.937    -0.210   150.013    20.614
    43   7 N        2.684    -0.235    26.141     7.594
    44   6 C        3.850    -0.031    21.089     6.532
    45   6 C        3.739    -0.040    21.377     6.597
    46   6 C        2.740     0.255    22.706     7.802
    47   6 C        3.711    -0.097    22.486     6.776
    48   6 C        3.801    -0.063    21.710     6.634
    49   8 O        0.856    -0.413    21.942     6.280
    50   6 C        3.756    -0.116    22.765     6.803
    51   6 C        3.791    -0.062    21.697     6.634
    52   6 C        3.777    -0.050    21.498     6.606
    53   6 C        3.726     0.017    20.382     6.446
    54   7 N        2.682    -0.266    26.882     7.700
    55   6 C        2.731     0.226    23.251     7.894
    56   7 N        1.776    -0.434    32.321     8.419
    57   7 N        2.639    -0.288    27.424     7.778
    58   6 C        3.731    -0.119    22.871     6.827
    59   1 H        0.853     0.202     1.095     1.640
    60   1 H        0.922     0.047     2.362     2.404
    61   1 H        0.856     0.197     1.120     1.658
    62   1 H        0.918     0.099     1.791     2.093
    63   1 H        0.925     0.066     2.134     2.284
    64   1 H        0.860     0.174     1.250     1.752
    65   1 H        0.917     0.053     2.290     2.367
    66   1 H        0.928     0.049     2.328     2.386
    67   1 H        0.917     0.016     2.792     2.613
    68   1 H        0.912    -0.003     3.116     2.761
    69   1 H        0.918     0.035     2.516     2.481
    70   1 H        0.855     0.250     0.882     1.472
    71   1 H        0.921     0.017     2.780     2.608
    72   1 H        0.926     0.029     2.603     2.523
    73   1 H        0.927     0.065     2.142     2.289
    74   1 H        0.861     0.183     1.194     1.712
    75   1 H        0.919     0.032     2.555     2.500
    76   1 H        0.927     0.043     2.409     2.427
    77   1 H        0.912     0.025     2.657     2.550
    78   1 H        0.922     0.023     2.690     2.565
    79   1 H        0.925     0.029     2.595     2.519
    80   1 H        0.917     0.040     2.454     2.450
    81   1 H        0.926     0.020     2.726     2.582
    82   1 H        0.858     0.185     1.186     1.706
    83   1 H        0.924     0.077     2.011     2.218
    84   1 H        0.914     0.060     2.196     2.318
    85   1 H        0.916     0.015     2.814     2.624
    86   1 H        0.921     0.016     2.788     2.612
    87   1 H        0.923     0.041     2.431     2.438
    88   1 H        0.924     0.053     2.286     2.364
    89   1 H        0.861     0.192     1.148     1.678
    90   1 H        0.862     0.148     1.413     1.862
    91   1 H        0.918     0.059     2.210     2.325
    92   1 H        0.859     0.182     1.201     1.716
    93   1 H        0.919     0.048     2.344     2.394
    94   1 H        0.926     0.065     2.143     2.289
    95   1 H        0.918     0.032     2.563     2.504
    96   1 H        0.924     0.039     2.465     2.455
    97   1 H        0.914     0.028     2.619     2.531
    98   1 H        0.909     0.029     2.610     2.527
    99   1 H        0.919     0.039     2.464     2.455
   100   1 H        0.927     0.033     2.549     2.496
   101   1 H        0.922     0.042     2.419     2.432
   102   1 H        0.924     0.037     2.487     2.466
   103   1 H        0.924     0.036     2.505     2.475
   104   1 H        0.929     0.058     2.217     2.329
   105   1 H        0.920     0.068     2.110     2.272
   106   1 H        0.924     0.068     2.107     2.270
   107   1 H        0.924     0.036     2.498     2.471
   108   1 H        0.906     0.033     2.545     2.496
   109   1 H        0.915     0.031     2.570     2.508
   110   1 H        0.928     0.025     2.659     2.550
   111   1 H        0.860     0.155     1.366     1.831
   112   1 H        0.861     0.141     1.466     1.896
   113   1 H        0.861     0.190     1.161     1.688
   114   1 H        0.857     0.171     1.269     1.764
   115   1 H        0.915     0.085     1.925     2.170
   116   1 H        0.929     0.048     2.346     2.395
   117   1 H        0.912     0.028     2.616     2.530

 Mol. C6AA /au·bohr⁶  :     136718.619144
 Mol. C8AA /au·bohr⁸  :    3095991.553752
 Mol. α(0) /au        :        552.303765


Wiberg/Mayer (AO) data.
largest (>0.10) Wiberg bond orders for each atom

 ---------------------------------------------------------------------------
     #   Z sym  total        # sym  WBO       # sym  WBO       # sym  WBO
 ---------------------------------------------------------------------------
     1   7 N    3.425 --     7 C    1.286     2 C    0.938    59 H    0.903
                             9 O    0.200
     2   6 C    3.962 --    51 C    0.992    60 H    0.952     3 C    0.947
                             1 N    0.938
     3   6 C    3.952 --     4 O    1.657     5 N    1.282     2 C    0.947
     4   8 O    1.987 --     3 C    1.657     5 N    0.194
     5   7 N    3.463 --     3 C    1.282     6 C    0.988    61 H    0.921
                             4 O    0.194
     6   6 C    3.962 --     5 N    0.988    58 C    0.986    46 C    0.947
                            62 H    0.916
     7   6 C    3.946 --     9 O    1.666     1 N    1.286     8 C    0.926
     8   6 C    3.951 --    11 C    0.989    10 N    0.954    63 H    0.942
                             7 C    0.926
     9   8 O    1.985 --     7 C    1.666     1 N    0.200
    10   7 N    3.417 --    12 C    1.243     8 C    0.954    64 H    0.936
                            15 O    0.197
    11   6 C    3.980 --    13 C    0.991     8 C    0.989    66 H    0.974
                            65 H    0.968
    12   6 C    3.946 --    15 O    1.660    10 N    1.243    14 C    0.946
    13   6 C    3.959 --    11 C    0.991    67 H    0.965    68 H    0.963
                            16 C    0.934
    14   6 C    3.963 --    17 N    0.984    18 C    0.963    69 H    0.947
                            12 C    0.946
    15   8 O    2.009 --    12 C    1.660    10 N    0.197
    16   6 C    3.948 --    20 O    1.525    19 O    1.470    13 C    0.934
    17   7 N    3.459 --    21 C    1.343    14 C    0.984    70 H    0.807
                            24 O    0.204
    18   6 C    3.940 --    72 H    0.983    71 H    0.976    14 C    0.963
                            22 C    0.800
    19   8 O    1.789 --    16 C    1.470    20 O    0.232
    20   8 O    1.831 --    16 C    1.525    19 O    0.232
    21   6 C    3.953 --    24 O    1.628    17 N    1.343    23 C    0.904
    22   6 C    3.940 --    25 O    1.619    26 O    1.498    18 C    0.800
    23   6 C    3.948 --    27 N    0.973    73 H    0.966    28 C    0.958
                            21 C    0.904
    24   8 O    1.982 --    21 C    1.628    17 N    0.204
    25   8 O    1.947 --    22 C    1.619    26 O    0.222
    26   8 O    1.951 --    22 C    1.498    25 O    0.222
    27   7 N    3.424 --    29 C    1.233    23 C    0.973    74 H    0.932
                            32 O    0.209
    28   6 C    3.987 --    30 C    1.006    76 H    0.979    75 H    0.977
                            23 C    0.958
    29   6 C    3.951 --    32 O    1.740    27 N    1.233    31 C    0.907
    30   6 C    3.989 --    28 C    1.006    33 C    0.993    78 H    0.982
                            77 H    0.978
    31   6 C    3.967 --    35 C    0.999    34 N    0.976    79 H    0.947
                            29 C    0.907
    32   8 O    2.064 --    29 C    1.740    27 N    0.209
    33   6 C    3.984 --    30 C    0.993    81 H    0.985    80 H    0.974
                            36 C    0.958
    34   7 N    3.410 --    37 C    1.222    31 C    0.976    82 H    0.921
                            41 O    0.194
    35   6 C    3.992 --    38 C    1.031    31 C    0.999    84 H    0.962
                            83 H    0.947
    36   6 C    3.987 --    39 N    1.066    85 H    0.978    86 H    0.971
                            33 C    0.958
    37   6 C    3.954 --    41 O    1.688    34 N    1.222    40 C    0.967
    38   6 C    3.979 --    35 C    1.031    88 H    0.973    87 H    0.971
                            42 S    0.961
    39   7 N    3.047 --    36 C    1.066    90 H    0.962    89 H    0.939
    40   6 C    3.970 --    43 N    0.980    37 C    0.967    44 C    0.962
                            91 H    0.941
    41   8 O    2.004 --    37 C    1.688    34 N    0.194
    42  16 S    2.073 --    45 C    1.018    38 C    0.961
    43   7 N    3.351 --    46 C    1.161    40 C    0.980    92 H    0.920
                            49 O    0.183
    44   6 C    3.982 --    48 C    0.997    47 C    0.993    40 C    0.962
                            93 H    0.959
    45   6 C    3.973 --    42 S    1.018    95 H    0.981    96 H    0.980
                            94 H    0.976
    46   6 C    3.917 --    49 O    1.727    43 N    1.161     6 C    0.947
    47   6 C    3.988 --    44 C    0.993    99 H    0.987    98 H    0.985
                            97 H    0.983
    48   6 C    3.996 --    50 C    1.015    44 C    0.997   100 H    0.978
                           101 H    0.972
    49   8 O    2.036 --    46 C    1.727    43 N    0.183
    50   6 C    3.994 --    48 C    1.015   103 H    0.986   102 H    0.986
                           104 H    0.985
    51   6 C    3.984 --    52 C    1.001     2 C    0.992   105 H    0.973
                           106 H    0.966
    52   6 C    3.991 --    53 C    1.006    51 C    1.001   107 H    0.974
                           108 H    0.972
    53   6 C    3.976 --    52 C    1.006    54 N    0.996   110 H    0.970
                           109 H    0.960
    54   7 N    3.210 --    55 C    1.055    53 C    0.996   111 H    0.943
                            56 N    0.130
    55   6 C    3.958 --    56 N    1.708    57 N    1.167    54 N    1.055
    56   7 N    2.957 --    55 C    1.708   112 H    0.946    54 N    0.130
                            57 N    0.112
    57   7 N    3.218 --    55 C    1.167   114 H    0.945   113 H    0.936
                            56 N    0.112
    58   6 C    3.986 --     6 C    0.986   117 H    0.982   115 H    0.975
                           116 H    0.974
    59   1 H    0.959 --     1 N    0.903
    60   1 H    0.998 --     2 C    0.952
    61   1 H    0.961 --     5 N    0.921
    62   1 H    0.989 --     6 C    0.916
    63   1 H    0.995 --     8 C    0.942
    64   1 H    0.970 --    10 N    0.936
    65   1 H    0.997 --    11 C    0.968
    66   1 H    0.997 --    11 C    0.974
    67   1 H    0.999 --    13 C    0.965
    68   1 H    1.000 --    13 C    0.963
    69   1 H    0.998 --    14 C    0.947
    70   1 H    0.937 --    17 N    0.807
    71   1 H    1.000 --    18 C    0.976
    72   1 H    0.998 --    18 C    0.983
    73   1 H    0.996 --    23 C    0.966
    74   1 H    0.966 --    27 N    0.932
    75   1 H    0.998 --    28 C    0.977
    76   1 H    0.998 --    28 C    0.979
    77   1 H    0.999 --    30 C    0.978
    78   1 H    0.999 --    30 C    0.982
    79   1 H    0.999 --    31 C    0.947
    80   1 H    0.998 --    33 C    0.974
    81   1 H    1.000 --    33 C    0.985
    82   1 H    0.965 --    34 N    0.921
    83   1 H    0.993 --    35 C    0.947
    84   1 H    0.996 --    35 C    0.962
    85   1 H    0.999 --    36 C    0.978
    86   1 H    1.000 --    36 C    0.971
    87   1 H    0.998 --    38 C    0.971
    88   1 H    0.997 --    38 C    0.973
    89   1 H    0.963 --    39 N    0.939
    90   1 H    0.978 --    39 N    0.962
    91   1 H    0.995 --    40 C    0.941
    92   1 H    0.967 --    43 N    0.920
    93   1 H    0.997 --    44 C    0.959
    94   1 H    0.995 --    45 C    0.976
    95   1 H    0.999 --    45 C    0.981
    96   1 H    0.998 --    45 C    0.980
    97   1 H    0.999 --    47 C    0.983
    98   1 H    0.999 --    47 C    0.985
    99   1 H    0.998 --    47 C    0.987
   100   1 H    0.999 --    48 C    0.978
   101   1 H    0.998 --    48 C    0.972
   102   1 H    0.999 --    50 C    0.986
   103   1 H    0.998 --    50 C    0.986
   104   1 H    0.997 --    50 C    0.985
   105   1 H    0.995 --    51 C    0.973
   106   1 H    0.995 --    51 C    0.966
   107   1 H    0.999 --    52 C    0.974
   108   1 H    0.998 --    52 C    0.972
   109   1 H    0.999 --    53 C    0.960
   110   1 H    0.999 --    53 C    0.970
   111   1 H    0.976 --    54 N    0.943
   112   1 H    0.980 --    56 N    0.946
   113   1 H    0.964 --    57 N    0.936
   114   1 H    0.970 --    57 N    0.945
   115   1 H    0.992 --    58 C    0.975
   116   1 H    0.998 --    58 C    0.974
   117   1 H    0.999 --    58 C    0.982
 ---------------------------------------------------------------------------

Topologies differ in total number of bonds
Writing topology from bond orders to xtbtopo.mol

molecular dipole:
                 x           y           z       tot (Debye)
 q only:        1.758      14.723       1.788
   full:        2.258      14.861       2.204      38.615
molecular quadrupole (traceless):
                xx          xy          yy          xz          yz          zz
 q only:       16.888       6.504    -114.011      55.301     -92.538      97.123
  q+dip:       10.359      21.364    -113.519      49.570    -100.249     103.160
   full:        9.249      21.109    -112.537      49.671    -100.237     103.288


           -------------------------------------------------
          | TOTAL ENERGY             -185.527713993602 Eh   |
          | GRADIENT NORM               0.392327485695 Eh/α |
          | HOMO-LUMO GAP               0.224071679107 eV   |
           -------------------------------------------------

------------------------------------------------------------------------
 * finished run on 2026/05/23 at 13:01:29.424     
------------------------------------------------------------------------
 total:
 * wall-time:     0 d,  0 h,  0 min,  3.648 sec
 *  cpu-time:     0 d,  0 h,  0 min, 48.878 sec
 * ratio c/w:    13.400 speedup
 SCF:
 * wall-time:     0 d,  0 h,  0 min,  3.499 sec
 *  cpu-time:     0 d,  0 h,  0 min, 47.341 sec
 * ratio c/w:    13.530 speedup

normal termination of xtb
