      -----------------------------------------------------------      
     |                   =====================                   |     
     |                           x T B                           |     
     |                   =====================                   |     
     |                         S. Grimme                         |     
     |          Mulliken Center for Theoretical Chemistry        |     
     |                    University of Bonn                     |     
      -----------------------------------------------------------      

   * xtb version 6.7.1 (edcfbbe) compiled by 'albert@albert-system' on 2024-07-22

   xtb is free software: you can redistribute it and/or modify it under
   the terms of the GNU Lesser General Public License as published by
   the Free Software Foundation, either version 3 of the License, or
   (at your option) any later version.
   
   xtb is distributed in the hope that it will be useful,
   but WITHOUT ANY WARRANTY; without even the implied warranty of
   MERCHANTABILITY or FITNESS FOR A PARTICULAR PURPOSE.  See the
   GNU Lesser General Public License for more details.
   
   Cite this work as:
   * C. Bannwarth, E. Caldeweyher, S. Ehlert, A. Hansen, P. Pracht,
     J. Seibert, S. Spicher, S. Grimme, WIREs Comput. Mol. Sci., 2020, 11,
     e01493. DOI: 10.1002/wcms.1493
   
   for GFN2-xTB:
   * C. Bannwarth, S. Ehlert and S. Grimme., J. Chem. Theory Comput., 2019,
     15, 1652-1671. DOI: 10.1021/acs.jctc.8b01176
   for GFN1-xTB:
   * S. Grimme, C. Bannwarth, P. Shushkov, J. Chem. Theory Comput., 2017,
     13, 1989-2009. DOI: 10.1021/acs.jctc.7b00118
   for GFN0-xTB:
   * P. Pracht, E. Caldeweyher, S. Ehlert, S. Grimme, ChemRxiv, 2019, preprint.
     DOI: 10.26434/chemrxiv.8326202.v1
   for GFN-FF:
   * S. Spicher and S. Grimme, Angew. Chem. Int. Ed., 2020, 59, 15665-15673.
     DOI: 10.1002/anie.202004239
   
   for ALPB and GBSA implicit solvation:
   * S. Ehlert, M. Stahn, S. Spicher, S. Grimme, J. Chem. Theory Comput.,
     2021, 17, 4250-4261. DOI: 10.1021/acs.jctc.1c00471
   
   for ddCOSMO and CPCM-X implicit solvation:
   * M. Stahn, S. Ehlert, S. Grimme, J. Phys. Chem. A,
     2023, XX, XXXX-XXXX. DOI: 10.1021/acs.jpca.3c04382
   
   for DFT-D4:
   * E. Caldeweyher, C. Bannwarth and S. Grimme, J. Chem. Phys., 2017,
     147, 034112. DOI: 10.1063/1.4993215
   * E. Caldeweyher, S. Ehlert, A. Hansen, H. Neugebauer, S. Spicher,
     C. Bannwarth and S. Grimme, J. Chem. Phys., 2019, 150, 154122.
     DOI: 10.1063/1.5090222
   * E. Caldeweyher, J.-M. Mewes, S. Ehlert and S. Grimme, Phys. Chem. Chem. Phys.
     2020, 22, 8499-8512. DOI: 10.1039/D0CP00502A
   
   for sTDA-xTB:
   * S. Grimme and C. Bannwarth, J. Chem. Phys., 2016, 145, 054103.
     DOI: 10.1063/1.4959605
   
   in the mass-spec context:
   * V. Asgeirsson, C. Bauer and S. Grimme, Chem. Sci., 2017, 8, 4879.
     DOI: 10.1039/c7sc00601b
   * J. Koopman and S. Grimme, ACS Omega 2019, 4, 12, 15120-15133.
     DOI: 10.1021/acsomega.9b02011
   
   for metadynamics refer to:
   * S. Grimme, J. Chem. Theory Comput., 2019, 155, 2847-2862
     DOI: 10.1021/acs.jctc.9b00143
   
   for SPH calculations refer to:
   * S. Spicher and S. Grimme, J. Chem. Theory Comput., 2021, 17, 1701-1714
     DOI: 10.1021/acs.jctc.0c01306
   
   for ONIOM refer to:
   * C. Plett, A. Katbashev, S. Ehlert, S. Grimme, M. Bursch,
     Phys. Chem. Chem. Phys., 2023, 25, 17860-17868. DOI: 10.1039/D3CP02178E
   
   for DIPRO refer to:
   * J. Kohn, N. Gildemeister, S. Grimme, D. Fazzi, A. Hansen,
     J. Chem. Phys., 2023, just accepted.
   
   for PTB refer to:
   * S. Grimme, M. Mueller, A. Hansen, J. Chem. Phys., 2023, 158, 124111.
     DOI: 10.1063/5.0137838
   
   with help from (in alphabetical order)
   P. Atkinson, C. Bannwarth, F. Bohle, G. Brandenburg, E. Caldeweyher
   M. Checinski, S. Dohm, S. Ehlert, S. Ehrlich, I. Gerasimov, C. Hölzer
   A. Katbashev, J. Kohn, J. Koopman, C. Lavigne, S. Lehtola, F. März, M. Müller,
   F. Musil, H. Neugebauer, J. Pisarek, C. Plett, P. Pracht, F. Pultar,
   J. Seibert, P. Shushkov, S. Spicher, M. Stahn, M. Steiner, T. Strunk,
   J. Stückrath, T. Rose, and J. Unsleber
   
 * started run on 2026/05/23 at 12:47:37.275     
   ID    Z sym.   atoms
    1    7 N      1, 5, 10, 18, 28, 30, 37-39, 41, 47, 48, 56
    2    6 C      2, 3, 6-8, 11-14, 16, 17, 19-25, 27, 29, 31-34, 36, 40,
                  42-45, 49, 51-55
    3    8 O      4, 9, 15, 26, 35, 46, 50
    4    1 H      57-115

           -------------------------------------------------
          |                Calculation Setup                |
           -------------------------------------------------

          program call               : /home/xchen/software/xtb-6.7.1/xtb-dist/bin/xtb /home/xchen/Test/benchmark/md_sampled/03_6_0978_0/snap_0115.xyz --charge 0 --gfn 2 --norestart
          coordinate file            : /home/xchen/Test/benchmark/md_sampled/03_6_0978_0/snap_0115.xyz
          omp threads                :                    48


           -------------------------------------------------
          |                 G F N 2 - x T B                 |
           -------------------------------------------------

        Reference                      10.1021/acs.jctc.8b01176
      * Hamiltonian:
        H0-scaling (s, p, d)           1.850000    2.230000    2.230000
        zeta-weighting                 0.500000
      * Dispersion:
        s8                             2.700000
        a1                             0.520000
        a2                             5.000000
        s9                             5.000000
      * Repulsion:
        kExp                           1.500000    1.000000
        rExp                           1.000000
      * Coulomb:
        alpha                          2.000000
        third order                    shell-resolved
        anisotropic                    true
        a3                             3.000000
        a5                             4.000000
        cn-shift                       1.200000
        cn-exp                         4.000000
        max-rad                        5.000000


          ...................................................
          :                      SETUP                      :
          :.................................................:
          :  # basis functions                 283          :
          :  # atomic orbitals                 283          :
          :  # shells                          171          :
          :  # electrons                       310          :
          :  max. iterations                   250          :
          :  Hamiltonian                  GFN2-xTB          :
          :  restarted?                      false          :
          :  GBSA solvation                  false          :
          :  PC potential                    false          :
          :  electronic temp.          300.0000000     K    :
          :  accuracy                    1.0000000          :
          :  -> integral cutoff          0.2500000E+02      :
          :  -> integral neglect         0.1000000E-07      :
          :  -> SCF convergence          0.1000000E-05 Eh   :
          :  -> wf. convergence          0.1000000E-03 e    :
          :  Broyden damping             0.4000000          :
          :  net charge                          0          :
          :  unpaired electrons                  0          :
          ...................................................

 iter      E             dE          RMSdq      gap      omega  full diag
   1   -175.3224872 -0.175322E+03  0.384E+00    3.13       0.0  T
   2   -175.6789921 -0.356505E+00  0.211E+00    2.31       1.0  T
   3   -175.6949267 -0.159346E-01  0.109E+00    2.66       1.0  T
   4   -175.6999337 -0.500701E-02  0.223E-01    2.48       1.0  T
   5   -175.7038418 -0.390809E-02  0.924E-02    2.53       1.0  T
   6   -175.7041038 -0.262002E-03  0.427E-02    2.52       1.0  T
   7   -175.7041644 -0.605660E-04  0.199E-02    2.52       1.0  T
   8   -175.7041798 -0.153838E-04  0.560E-03    2.52       1.7  T
   9   -175.7041803 -0.527292E-06  0.261E-03    2.52       3.6  T
  10   -175.7041805 -0.206259E-06  0.110E-03    2.52       8.5  T
  11   -175.7041805 -0.209644E-07  0.485E-04    2.52      19.2  T
  12   -175.7041805 -0.130594E-07  0.175E-04    2.52      53.2  T

   *** convergence criteria satisfied after 12 iterations ***

         #    Occupation            Energy/Eh            Energy/eV
      -------------------------------------------------------------
         1        2.0000           -0.7417734             -20.1847
       ...           ...                  ...                  ...
       149        2.0000           -0.3847057             -10.4684
       150        2.0000           -0.3806624             -10.3583
       151        2.0000           -0.3718064             -10.1174
       152        2.0000           -0.3698247             -10.0634
       153        2.0000           -0.3630152              -9.8781
       154        2.0000           -0.3589858              -9.7685
       155        2.0000           -0.3475230              -9.4566 (HOMO)
       156                         -0.2550007              -6.9389 (LUMO)
       157                         -0.2543763              -6.9219
       158                         -0.2519074              -6.8548
       159                         -0.2455622              -6.6821
       160                         -0.2400823              -6.5330
       ...                                ...                  ...
       283                          0.6727859              18.3074
      -------------------------------------------------------------
                  HL-Gap            0.0925223 Eh            2.5177 eV
             Fermi-level           -0.3012618 Eh           -8.1978 eV

 SCC (total)                   0 d,  0 h,  0 min, 17.680 sec
 SCC setup                      ...        0 min,  0.019 sec (  0.107%)
 Dispersion                     ...        0 min,  0.041 sec (  0.231%)
 classical contributions        ...        0 min,  0.004 sec (  0.024%)
 integral evaluation            ...        0 min,  0.370 sec (  2.095%)
 iterations                     ...        0 min, 16.429 sec ( 92.921%)
 molecular gradient             ...        0 min,  0.797 sec (  4.510%)
 printout                       ...        0 min,  0.020 sec (  0.112%)

         :::::::::::::::::::::::::::::::::::::::::::::::::::::
         ::                     SUMMARY                     ::
         :::::::::::::::::::::::::::::::::::::::::::::::::::::
         :: total energy            -173.543711925169 Eh    ::
         :: gradient norm              0.358723982725 Eh/a0 ::
         :: HOMO-LUMO gap              2.517660445480 eV    ::
         ::.................................................::
         :: SCC energy              -175.697971612974 Eh    ::
         :: -> isotropic ES            0.333734778163 Eh    ::
         :: -> anisotropic ES          0.013852254091 Eh    ::
         :: -> anisotropic XC          0.076777755708 Eh    ::
         :: -> dispersion             -0.138547023907 Eh    ::
         :: repulsion energy           2.154259687805 Eh    ::
         :: add. restraining           0.000000000000 Eh    ::
         :: total charge              -0.000000000000 e     ::
         :::::::::::::::::::::::::::::::::::::::::::::::::::::

           -------------------------------------------------
          |                Property Printout                |
           -------------------------------------------------

    * Orbital Energies and Occupations

         #    Occupation            Energy/Eh            Energy/eV
      -------------------------------------------------------------
         1        2.0000           -0.7417734             -20.1847
       ...           ...                  ...                  ...
       143        2.0000           -0.4143871             -11.2760
       144        2.0000           -0.4111051             -11.1867
       145        2.0000           -0.4085711             -11.1178
       146        2.0000           -0.4075666             -11.0905
       147        2.0000           -0.3929210             -10.6919
       148        2.0000           -0.3875131             -10.5448
       149        2.0000           -0.3847057             -10.4684
       150        2.0000           -0.3806624             -10.3583
       151        2.0000           -0.3718064             -10.1174
       152        2.0000           -0.3698247             -10.0634
       153        2.0000           -0.3630152              -9.8781
       154        2.0000           -0.3589858              -9.7685
       155        2.0000           -0.3475230              -9.4566 (HOMO)
       156                         -0.2550007              -6.9389 (LUMO)
       157                         -0.2543763              -6.9219
       158                         -0.2519074              -6.8548
       159                         -0.2455622              -6.6821
       160                         -0.2400823              -6.5330
       161                         -0.2390905              -6.5060
       162                         -0.2276662              -6.1951
       163                         -0.2140027              -5.8233
       164                         -0.1748290              -4.7573
       165                         -0.1588716              -4.3231
       166                         -0.1286101              -3.4997
       ...                                ...                  ...
       283                          0.6727859              18.3074
      -------------------------------------------------------------
                  HL-Gap            0.0925223 Eh            2.5177 eV
             Fermi-level           -0.3012618 Eh           -8.1978 eV

     #   Z          covCN         q      C6AA      α(0)
     1   7 N        2.688    -0.212    25.624     7.518
     2   6 C        3.792     0.014    20.349     6.424
     3   6 C        2.766     0.283    22.215     7.719
     4   8 O        0.860    -0.455    22.809     6.403
     5   7 N        2.682    -0.162    24.506     7.352
     6   6 C        3.761     0.014    20.381     6.436
     7   6 C        2.752     0.278    22.305     7.733
     8   6 C        3.789     0.019    20.272     6.412
     9   8 O        0.860    -0.440    22.489     6.358
    10   7 N        2.679    -0.176    24.820     7.399
    11   6 C        3.806    -0.076    21.939     6.668
    12   6 C        2.740     0.256    22.689     7.799
    13   6 C        2.975     0.003    27.964     8.674
    14   6 C        3.809     0.020    20.234     6.403
    15   8 O        0.862    -0.444    22.586     6.372
    16   6 C        2.911    -0.057    29.414     8.893
    17   6 C        2.900    -0.031    28.783     8.797
    18   7 N        2.709    -0.212    25.606     7.516
    19   6 C        3.814    -0.059    21.616     6.617
    20   6 C        2.924    -0.034    28.851     8.809
    21   6 C        2.929    -0.024    28.593     8.769
    22   6 C        2.809     0.277    22.317     7.740
    23   6 C        3.792    -0.072    21.879     6.661
    24   6 C        2.897    -0.034    28.853     8.807
    25   6 C        3.794     0.009    20.430     6.437
    26   8 O        0.859    -0.422    22.114     6.305
    27   6 C        3.727     0.007    20.567     6.475
    28   7 N        2.703    -0.191    25.143     7.447
    29   6 C        3.795    -0.079    22.017     6.682
    30   7 N        2.684    -0.224    25.897     7.558
    31   6 C        2.742     0.283    22.202     7.715
    32   6 C        3.789    -0.067    21.794     6.649
    33   6 C        2.731     0.226    23.239     7.892
    34   6 C        3.823     0.022    20.186     6.393
    35   8 O        0.857    -0.403    21.737     6.251
    36   6 C        3.733     0.004    20.594     6.477
    37   7 N        1.777    -0.399    31.282     8.283
    38   7 N        2.647    -0.338    28.687     7.955
    39   7 N        2.764    -0.095    23.086     7.136
    40   6 C        3.854    -0.053    21.489     6.593
    41   7 N        2.719    -0.220    25.800     7.544
    42   6 C        3.752    -0.013    20.859     6.513
    43   6 C        2.765     0.281    22.252     7.725
    44   6 C        3.824    -0.065    21.729     6.633
    45   6 C        2.732     0.234    23.091     7.867
    46   8 O        0.858    -0.439    22.477     6.356
    47   7 N        1.783    -0.440    32.495     8.442
    48   7 N        2.665    -0.317    28.155     7.881
    49   6 C        3.742     0.117    18.735     6.175
    50   8 O        1.656    -0.436    21.554     6.267
    51   6 C        3.744    -0.145    23.366     6.896
    52   6 C        3.809    -0.072    21.861     6.656
    53   6 C        3.792    -0.053    21.529     6.608
    54   6 C        3.800    -0.073    21.901     6.663
    55   6 C        3.727     0.009    20.519     6.467
    56   7 N        2.624    -0.354    29.119     8.014
    57   1 H        0.858     0.175     1.242     1.746
    58   1 H        0.921     0.072     2.063     2.246
    59   1 H        0.858     0.184     1.192     1.710
    60   1 H        0.891     0.073     2.056     2.244
    61   1 H        0.924     0.089     1.893     2.152
    62   1 H        0.859     0.195     1.134     1.668
    63   1 H        0.919     0.057     2.239     2.340
    64   1 H        0.924     0.085     1.926     2.171
    65   1 H        0.928     0.077     2.011     2.218
    66   1 H        0.927     0.035     2.515     2.480
    67   1 H        0.926     0.046     2.368     2.406
    68   1 H        0.861     0.188     1.170     1.695
    69   1 H        0.921     0.063     2.170     2.304
    70   1 H        0.928     0.062     2.171     2.304
    71   1 H        0.928     0.037     2.491     2.468
    72   1 H        0.923     0.033     2.541     2.493
    73   1 H        0.928     0.074     2.047     2.237
    74   1 H        0.914     0.029     2.608     2.526
    75   1 H        0.921     0.035     2.517     2.481
    76   1 H        0.924     0.078     1.997     2.210
    77   1 H        0.928     0.041     2.436     2.440
    78   1 H        0.916     0.036     2.509     2.478
    79   1 H        0.857     0.167     1.292     1.780
    80   1 H        0.928     0.055     2.253     2.347
    81   1 H        0.925     0.079     1.989     2.206
    82   1 H        0.860     0.165     1.301     1.787
    83   1 H        0.916     0.066     2.134     2.285
    84   1 H        0.922     0.044     2.395     2.420
    85   1 H        0.924     0.038     2.482     2.464
    86   1 H        0.926     0.032     2.551     2.498
    87   1 H        0.929     0.057     2.237     2.339
    88   1 H        0.854     0.121     1.621     1.995
    89   1 H        0.860     0.167     1.288     1.778
    90   1 H        0.861     0.183     1.197     1.714
    91   1 H        0.922     0.053     2.285     2.364
    92   1 H        0.928     0.049     2.333     2.388
    93   1 H        0.860     0.159     1.339     1.813
    94   1 H        0.920     0.065     2.143     2.289
    95   1 H        0.920     0.056     2.247     2.344
    96   1 H        0.927     0.054     2.274     2.358
    97   1 H        0.925     0.036     2.496     2.471
    98   1 H        0.862     0.135     1.505     1.922
    99   1 H        0.861     0.165     1.300     1.786
   100   1 H        0.857     0.172     1.260     1.759
   101   1 H        0.925     0.031     2.567     2.506
   102   1 H        0.802     0.326     0.648     1.265
   103   1 H        0.918     0.066     2.129     2.282
   104   1 H        0.926     0.053     2.284     2.363
   105   1 H        0.929     0.058     2.218     2.329
   106   1 H        0.927     0.045     2.380     2.412
   107   1 H        0.928     0.055     2.263     2.352
   108   1 H        0.925     0.048     2.350     2.397
   109   1 H        0.914     0.031     2.570     2.508
   110   1 H        0.928     0.052     2.289     2.366
   111   1 H        0.921     0.046     2.371     2.408
   112   1 H        0.924     0.039     2.463     2.454
   113   1 H        0.925     0.016     2.797     2.615
   114   1 H        0.859     0.132     1.529     1.937
   115   1 H        0.862     0.146     1.430     1.873

 Mol. C6AA /au·bohr⁶  :     125359.121713
 Mol. C8AA /au·bohr⁸  :    2793880.485413
 Mol. α(0) /au        :        533.427742


Wiberg/Mayer (AO) data.
largest (>0.10) Wiberg bond orders for each atom

 ---------------------------------------------------------------------------
     #   Z sym  total        # sym  WBO       # sym  WBO       # sym  WBO
 ---------------------------------------------------------------------------
     1   7 N    3.401 --     7 C    1.228     2 C    0.968    57 H    0.927
                             9 O    0.192
     2   6 C    3.957 --    49 C    0.971     1 N    0.968    58 H    0.942
                             3 C    0.937
     3   6 C    3.954 --     4 O    1.643     5 N    1.285     2 C    0.937
     4   8 O    1.983 --     3 C    1.643     5 N    0.190
     5   7 N    3.452 --     3 C    1.285     6 C    0.963    59 H    0.926
                             4 O    0.190
     6   6 C    3.954 --    52 C    0.971     5 N    0.963    43 C    0.943
                            60 H    0.941
     7   6 C    3.954 --     9 O    1.675     1 N    1.228     8 C    0.986
     8   6 C    3.966 --     7 C    0.986    10 N    0.957    11 C    0.945
                            61 H    0.932
     9   8 O    2.012 --     7 C    1.675     1 N    0.192
    10   7 N    3.434 --    12 C    1.292     8 C    0.957    62 H    0.919
                            15 O    0.189
    11   6 C    3.985 --    13 C    1.030    63 H    0.956    64 H    0.955
                             8 C    0.945
    12   6 C    3.944 --    15 O    1.665    10 N    1.292    14 C    0.921
    13   6 C    3.988 --    17 C    1.436    16 C    1.371    11 C    1.030
                            24 C    0.106
    14   6 C    3.955 --    19 C    0.978    18 N    0.968    65 H    0.945
                            12 C    0.921
    15   8 O    1.987 --    12 C    1.665    10 N    0.189
    16   6 C    3.986 --    20 C    1.457    13 C    1.371    66 H    0.964
                            21 C    0.119
    17   6 C    3.990 --    13 C    1.436    21 C    1.421    67 H    0.967
                            20 C    0.105
    18   7 N    3.397 --    22 C    1.226    14 C    0.968    68 H    0.924
                            26 O    0.190
    19   6 C    3.988 --    23 C    1.018    14 C    0.978    70 H    0.974
                            69 H    0.969
    20   6 C    3.992 --    16 C    1.457    24 C    1.429    71 H    0.972
                            17 C    0.105
    21   6 C    3.990 --    24 C    1.449    17 C    1.421    72 H    0.971
                            16 C    0.119
    22   6 C    3.950 --    26 O    1.698    18 N    1.226    25 C    0.964
    23   6 C    3.992 --    19 C    1.018    27 C    0.982    74 H    0.973
                            73 H    0.970
    24   6 C    3.988 --    21 C    1.449    20 C    1.429    75 H    0.968
                            13 C    0.106
    25   6 C    3.949 --    29 C    0.967    22 C    0.964    76 H    0.955
                            28 N    0.940
    26   8 O    2.019 --    22 C    1.698    18 N    0.190
    27   6 C    3.974 --    30 N    1.015    23 C    0.982    77 H    0.968
                            78 H    0.965
    28   7 N    3.404 --    31 C    1.234    25 C    0.940    79 H    0.934
                            35 O    0.193
    29   6 C    3.987 --    32 C    1.017    81 H    0.970    25 C    0.967
                            80 H    0.963
    30   7 N    3.310 --    33 C    1.115    27 C    1.015    82 H    0.942
                            37 N    0.158
    31   6 C    3.950 --    35 O    1.722    28 N    1.234    34 C    0.915
    32   6 C    3.989 --    29 C    1.017    36 C    0.992    84 H    0.970
                            83 H    0.968
    33   6 C    3.963 --    37 N    1.745    30 N    1.115    38 N    1.072
    34   6 C    3.968 --    40 C    0.988    39 N    0.965    85 H    0.955
                            31 C    0.915
    35   8 O    2.044 --    31 C    1.722    28 N    0.193
    36   6 C    3.979 --    41 N    1.007    32 C    0.992    87 H    0.975
                            86 H    0.966
    37   7 N    2.973 --    33 C    1.745    88 H    0.943    30 N    0.158
    38   7 N    3.118 --    33 C    1.072    90 H    0.952    89 H    0.945
    39   7 N    3.476 --    43 C    1.239    42 C    0.985    34 C    0.965
                            46 O    0.195
    40   6 C    3.993 --    44 C    1.018    34 C    0.988    92 H    0.973
                            91 H    0.970
    41   7 N    3.334 --    45 C    1.145    36 C    1.007    93 H    0.933
                            47 N    0.164
    42   6 C    3.964 --    39 N    0.985    44 C    0.983    94 H    0.964
                            95 H    0.963
    43   6 C    3.951 --    46 O    1.674    39 N    1.239     6 C    0.943
    44   6 C    3.989 --    40 C    1.018    42 C    0.983    97 H    0.978
                            96 H    0.975
    45   6 C    3.961 --    47 N    1.686    41 N    1.145    48 N    1.103
    46   8 O    2.023 --    43 C    1.674    39 N    0.195
    47   7 N    2.946 --    45 C    1.686    98 H    0.955    41 N    0.164
    48   7 N    3.174 --    45 C    1.103   100 H    0.953    99 H    0.948
    49   6 C    3.964 --    50 O    1.018    51 C    0.975     2 C    0.971
                           101 H    0.956
    50   8 O    1.972 --    49 C    1.018   102 H    0.858
    51   6 C    3.988 --   105 H    0.985   104 H    0.982   103 H    0.980
                            49 C    0.975
    52   6 C    3.984 --    53 C    1.002   106 H    0.973     6 C    0.971
                           107 H    0.970
    53   6 C    3.992 --    54 C    1.013    52 C    1.002   108 H    0.978
                           109 H    0.969
    54   6 C    3.995 --    53 C    1.013    55 C    0.998   110 H    0.973
                           111 H    0.971
    55   6 C    3.985 --    56 N    1.011    54 C    0.998   112 H    0.978
                           113 H    0.976
    56   7 N    2.984 --    55 C    1.011   114 H    0.970   115 H    0.967
    57   1 H    0.969 --     1 N    0.927
    58   1 H    0.995 --     2 C    0.942
    59   1 H    0.966 --     5 N    0.926
    60   1 H    0.994 --     6 C    0.941
    61   1 H    0.992 --     8 C    0.932
    62   1 H    0.962 --    10 N    0.919
    63   1 H    0.996 --    11 C    0.956
    64   1 H    0.993 --    11 C    0.955
    65   1 H    0.994 --    14 C    0.945
    66   1 H    0.999 --    16 C    0.964
    67   1 H    0.998 --    17 C    0.967
    68   1 H    0.965 --    18 N    0.924
    69   1 H    0.995 --    19 C    0.969
    70   1 H    0.996 --    19 C    0.974
    71   1 H    0.998 --    20 C    0.972
    72   1 H    0.999 --    21 C    0.971
    73   1 H    0.995 --    23 C    0.970
    74   1 H    0.999 --    23 C    0.973
    75   1 H    0.998 --    24 C    0.968
    76   1 H    0.993 --    25 C    0.955
    77   1 H    0.998 --    27 C    0.968
    78   1 H    0.999 --    27 C    0.965
    79   1 H    0.972 --    28 N    0.934
    80   1 H    0.997 --    29 C    0.963
    81   1 H    0.993 --    29 C    0.970
    82   1 H    0.973 --    30 N    0.942
    83   1 H    0.996 --    32 C    0.968
    84   1 H    0.997 --    32 C    0.970
    85   1 H    0.999 --    34 C    0.955
    86   1 H    0.999 --    36 C    0.966
    87   1 H    0.997 --    36 C    0.975
    88   1 H    0.985 --    37 N    0.943
    89   1 H    0.972 --    38 N    0.945
    90   1 H    0.966 --    38 N    0.952
    91   1 H    0.997 --    40 C    0.970
    92   1 H    0.997 --    40 C    0.973
    93   1 H    0.975 --    41 N    0.933
    94   1 H    0.996 --    42 C    0.964
    95   1 H    0.997 --    42 C    0.963
    96   1 H    0.996 --    44 C    0.975
    97   1 H    0.999 --    44 C    0.978
    98   1 H    0.982 --    47 N    0.955
    99   1 H    0.973 --    48 N    0.948
   100   1 H    0.970 --    48 N    0.953
   101   1 H    0.999 --    49 C    0.956
   102   1 H    0.894 --    50 O    0.858
   103   1 H    0.995 --    51 C    0.980
   104   1 H    0.997 --    51 C    0.982
   105   1 H    0.997 --    51 C    0.985
   106   1 H    0.998 --    52 C    0.973
   107   1 H    0.997 --    52 C    0.970
   108   1 H    0.998 --    53 C    0.978
   109   1 H    0.999 --    53 C    0.969
   110   1 H    0.997 --    54 C    0.973
   111   1 H    0.998 --    54 C    0.971
   112   1 H    0.998 --    55 C    0.978
   113   1 H    1.000 --    55 C    0.976
   114   1 H    0.982 --    56 N    0.970
   115   1 H    0.979 --    56 N    0.967
 ---------------------------------------------------------------------------

Topologies differ in total number of bonds
Writing topology from bond orders to xtbtopo.mol

molecular dipole:
                 x           y           z       tot (Debye)
 q only:        2.247      -1.692      -0.874
   full:        2.533      -1.930      -0.707       8.291
molecular quadrupole (traceless):
                xx          xy          yy          xz          yz          zz
 q only:      -38.323      38.046       9.711      -8.783      10.827      28.612
  q+dip:      -61.468      44.277      15.946     -19.077      16.884      45.523
   full:      -62.450      45.655      14.802     -18.243      17.599      47.649


           -------------------------------------------------
          | TOTAL ENERGY             -173.543711925169 Eh   |
          | GRADIENT NORM               0.358723982725 Eh/α |
          | HOMO-LUMO GAP               2.517660445480 eV   |
           -------------------------------------------------

------------------------------------------------------------------------
 * finished run on 2026/05/23 at 12:47:55.714     
------------------------------------------------------------------------
 total:
 * wall-time:     0 d,  0 h,  0 min, 18.439 sec
 *  cpu-time:     0 d,  0 h,  0 min, 27.861 sec
 * ratio c/w:     1.511 speedup
 SCF:
 * wall-time:     0 d,  0 h,  0 min, 17.682 sec
 *  cpu-time:     0 d,  0 h,  0 min, 26.620 sec
 * ratio c/w:     1.505 speedup

normal termination of xtb
