      -----------------------------------------------------------      
     |                   =====================                   |     
     |                           x T B                           |     
     |                   =====================                   |     
     |                         S. Grimme                         |     
     |          Mulliken Center for Theoretical Chemistry        |     
     |                    University of Bonn                     |     
      -----------------------------------------------------------      

   * xtb version 6.7.1 (26dd68d) compiled by 'froitzheim@fs7' on 2026-05-14

   xtb is free software: you can redistribute it and/or modify it under
   the terms of the GNU Lesser General Public License as published by
   the Free Software Foundation, either version 3 of the License, or
   (at your option) any later version.
   
   xtb is distributed in the hope that it will be useful,
   but WITHOUT ANY WARRANTY; without even the implied warranty of
   MERCHANTABILITY or FITNESS FOR A PARTICULAR PURPOSE.  See the
   GNU Lesser General Public License for more details.
   
   Cite this work as:
   * C. Bannwarth, E. Caldeweyher, S. Ehlert, A. Hansen, P. Pracht,
     J. Seibert, S. Spicher, S. Grimme, WIREs Comput. Mol. Sci., 2020, 11,
     e01493. DOI: 10.1002/wcms.1493
   
   for g-xTB:
   * T. Froitzheim, M. Müller, A. Hansen, S. Grimme, ChemRxiv, 2025, preprint.
     DOI: 10.26434/chemrxiv-2025-bjxv
   for GFN2-xTB:
   * C. Bannwarth, S. Ehlert and S. Grimme., J. Chem. Theory Comput., 2019,
     15, 1652-1671. DOI: 10.1021/acs.jctc.8b01176
   for GFN1-xTB:
   * S. Grimme, C. Bannwarth, P. Shushkov, J. Chem. Theory Comput., 2017,
     13, 1989-2009. DOI: 10.1021/acs.jctc.7b00118
   for GFN0-xTB:
   * P. Pracht, E. Caldeweyher, S. Ehlert, S. Grimme, ChemRxiv, 2019, preprint.
     DOI: 10.26434/chemrxiv.8326202.v1
   for GFN-FF:
   * S. Spicher and S. Grimme, Angew. Chem. Int. Ed., 2020, 59, 15665-15673.
     DOI: 10.1002/anie.202004239
   
   for ALPB and GBSA implicit solvation:
   * S. Ehlert, M. Stahn, S. Spicher, S. Grimme, J. Chem. Theory Comput.,
     2021, 17, 4250-4261. DOI: 10.1021/acs.jctc.1c00471
   
   for ddCOSMO and CPCM-X implicit solvation:
   * M. Stahn, S. Ehlert, S. Grimme, J. Phys. Chem. A,
     2023, XX, XXXX-XXXX. DOI: 10.1021/acs.jpca.3c04382
   
   for DFT-D4:
   * E. Caldeweyher, C. Bannwarth and S. Grimme, J. Chem. Phys., 2017,
     147, 034112. DOI: 10.1063/1.4993215
   * E. Caldeweyher, S. Ehlert, A. Hansen, H. Neugebauer, S. Spicher,
     C. Bannwarth and S. Grimme, J. Chem. Phys., 2019, 150, 154122.
     DOI: 10.1063/1.5090222
   * E. Caldeweyher, J.-M. Mewes, S. Ehlert and S. Grimme, Phys. Chem. Chem. Phys.
     2020, 22, 8499-8512. DOI: 10.1039/D0CP00502A
   
   for sTDA-xTB:
   * S. Grimme and C. Bannwarth, J. Chem. Phys., 2016, 145, 054103.
     DOI: 10.1063/1.4959605
   
   in the mass-spec context:
   * V. Asgeirsson, C. Bauer and S. Grimme, Chem. Sci., 2017, 8, 4879.
     DOI: 10.1039/c7sc00601b
   * J. Koopman and S. Grimme, ACS Omega 2019, 4, 12, 15120-15133.
     DOI: 10.1021/acsomega.9b02011
   
   for metadynamics refer to:
   * S. Grimme, J. Chem. Theory Comput., 2019, 155, 2847-2862
     DOI: 10.1021/acs.jctc.9b00143
   
   for SPH calculations refer to:
   * S. Spicher and S. Grimme, J. Chem. Theory Comput., 2021, 17, 1701-1714
     DOI: 10.1021/acs.jctc.0c01306
   
   for ONIOM refer to:
   * C. Plett, A. Katbashev, S. Ehlert, S. Grimme, M. Bursch,
     Phys. Chem. Chem. Phys., 2023, 25, 17860-17868. DOI: 10.1039/D3CP02178E
   
   for DIPRO refer to:
   * J. Kohn, N. Gildemeister, S. Grimme, D. Fazzi, A. Hansen,
     J. Chem. Phys. 159, 144106 (2023). DOI: 10.1063/5.0167484
   
   for PTB refer to:
   * S. Grimme, M. Mueller, A. Hansen, J. Chem. Phys., 2023, 158, 124111.
     DOI: 10.1063/5.0137838
   
   with help from (in alphabetical order)
   P. Atkinson, C. Bannwarth, F. Bohle, G. Brandenburg, E. Caldeweyher,
   M. Checinski, S. Dohm, S. Ehlert, S. Ehrlich, M. Friede, T. Froitzheim,
   I. Gerasimov, C. Hölzer, A. Katbashev, J. Kohn, J. Koopman, C. Lavigne,
   S. Lehtola, F. März, M. Müller, F. Musil, H. Neugebauer, J. Pisarek,
   C. Plett, P. Pracht, F. Pultar, J. Seibert, P. Shushkov, S. Spicher,
   M. Stahn, M. Steiner, T. Strunk, J. Stückrath, T. Rose, and J. Unsleber
   
 * started run on 2026/05/23 at 12:31:27.126     
   ID    Z sym.   atoms
    1    7 N      1, 5, 10, 17, 18, 25, 30, 33
    2    6 C      2, 3, 6-8, 11-14, 19-23, 26-28, 31, 32, 34, 36-39
    3    8 O      4, 9, 15, 16, 24, 29, 35
    4    1 H      40-77

           -------------------------------------------------
          |                Calculation Setup                |
           -------------------------------------------------

          program call               : /home/xchen/software/xtb-6.7.1-gxtb/bin/xtb /home/xchen/Test/benchmark/md_sampled/05_5_0513_0/snap_0066.xyz --charge 0 --gxtb --norestart
          coordinate file            : /home/xchen/Test/benchmark/md_sampled/05_5_0513_0/snap_0066.xyz
          omp threads                :                    48

core increment energy         -1.7251241620057E+03 Eh
dispersion energy              1.7786761559623E-02 Eh
molecular charge               0.0000000000000E+00 e
number of electrons            2.1599999999805E+02 e
number of unpaired electrons   0.0000000000000E+00 e
wavefunction                   restricted
integral cutoff                2.6907767250513E+01 bohr
energy convergence             1.0000000000000E-06 Eh
density convergence            2.0000000000000E-05 e

------------------------------------------------------------
  cycle        total energy    energy error   density error
------------------------------------------------------------
      1     -1901.071855844  -1.7596548E+02   0.0000000E+00
      2     -1901.412441924  -3.4058608E-01   2.3361764E-02
      3     -1901.626484577  -2.1404265E-01   1.8461781E-02
      4     -1902.070558869  -4.4407429E-01   1.4645249E-02
      5     -1902.079453759  -8.8948906E-03   1.1220546E-03
      6     -1902.080031935  -5.7817606E-04   2.1043176E-04
      7     -1902.080083461  -5.1525291E-05   6.5369880E-05
      8     -1902.080088204  -4.7433085E-06   1.6526927E-05
      9     -1902.080088848  -6.4428534E-07   4.0433063E-06
------------------------------------------------------------

electronic energy             -1.7697371360418E+02 Eh
total energy                  -1.9020800888483E+03 Eh

Post processing:
 | Mayer-Wiberg bond orders
 | Molecular Multipole Moments

 total:                                  11.974 sec
 - increment                              0.000 sec (  0%)
 - repulsion                              0.014 sec (  0%)
 - dispersion                             0.220 sec (  1%)
 - coulomb                                0.383 sec (  3%)
 - exchange                               0.019 sec (  0%)
 - hamiltonian                            0.418 sec (  3%)
 - acp                                    0.271 sec (  2%)
 - spin polarization                      0.000 sec (  0%)
 - post processing                        0.062 sec (  0%)
 - scc                                    9.759 sec ( 81%)
 - coulomb gradient                       0.046 sec (  0%)
 - dispersion gradient                    0.037 sec (  0%)
 - exchange gradient                      0.088 sec (  0%)
 - repulsion gradient                     0.007 sec (  0%)
 - acp gradient                           0.272 sec (  2%)
 - hamiltonian gradient                   0.437 sec (  3%)
 - gradient                               0.886 sec (  7%)

         :::::::::::::::::::::::::::::::::::::::::::::::::::::
         ::                     SUMMARY                     ::
         :::::::::::::::::::::::::::::::::::::::::::::::::::::
         :: total energy           -1902.080088848321 Eh    ::
         :: gradient norm              0.333388910786 Eh/a0 ::
         :: HOMO-LUMO gap              9.445924763734 eV    ::
         ::.................................................::
         :: add. restraining           0.000000000000 Eh    ::
         :: total charge               0.000000000000 e     ::
         :::::::::::::::::::::::::::::::::::::::::::::::::::::

           -------------------------------------------------
          |                Property Printout                |
           -------------------------------------------------

    * Orbital Energies and Occupations
------------------------------------------------------------------
      #    Occupation            Energy/Eh            Energy/eV
------------------------------------------------------------------
      1        2.0000           -1.3529011             -36.8143
    ...           ...                  ...                  ...
     96        2.0000           -0.3858083             -10.4984
     97        2.0000           -0.3816931             -10.3864
     98        2.0000           -0.3799394             -10.3387
     99        2.0000           -0.3759450             -10.2300
    100        2.0000           -0.3745407             -10.1918
    101        2.0000           -0.3713658             -10.1054
    102        2.0000           -0.3658734              -9.9559
    103        2.0000           -0.3644319              -9.9167
    104        2.0000           -0.3580178              -9.7422
    105        2.0000           -0.3511691              -9.5558
    106        2.0000           -0.3491470              -9.5008
    107        2.0000           -0.3482379              -9.4760
    108        2.0000           -0.3456671              -9.4061 (HOMO)
    109                          0.0014642               0.0398 (LUMO)
    110                          0.0152893               0.4160
    111                          0.0288873               0.7861
    112                          0.0310493               0.8449
    113                          0.0349890               0.9521
    114                          0.0361109               0.9826
    115                          0.0487086               1.3254
    116                          0.0706329               1.9220
    117                          0.1373916               3.7386
    118                          0.1528619               4.1596
    119                          0.1647432               4.4829
    ...                                ...                  ...
    194                          0.8248749              22.4460
------------------------------------------------------------------
               HL-Gap            0.3471313 Eh            9.4459 eV
------------------------------------------------------------------

Atomic charges and shell populations (in atomic units):
------------------------------------------------------
     #    Z                q          p(s)       p(p)
------------------------------------------------------
     1    7 N      -0.366200      1.366184   4.000016
     2    6 C      -0.039648      1.146093   2.893555
     3    6 C       0.424177      1.095200   2.480623
     4    8 O      -0.509460      1.848496   4.660964
     5    7 N      -0.356431      1.378832   3.977599
     6    6 C       0.027804      1.102080   2.870116
     7    6 C       0.419878      1.104030   2.476092
     8    6 C       0.024260      1.124771   2.850969
     9    8 O      -0.522931      1.852900   4.670031
    10    7 N      -0.343394      1.353481   3.989913
    11    6 C      -0.209277      1.160157   3.049120
    12    6 C       0.440841      1.091932   2.467226
    13    6 C       0.410020      1.093900   2.496080
    14    6 C       0.012901      1.130957   2.856143
    15    8 O      -0.529692      1.849670   4.680022
    16    8 O      -0.515753      1.858205   4.657548
    17    7 N      -0.423005      1.391833   4.031172
    18    7 N      -0.326550      1.357579   3.968971
    19    6 C      -0.089147      1.122083   2.967064
    20    6 C       0.387651      1.100897   2.511452
    21    6 C      -0.252260      1.175476   3.076784
    22    6 C      -0.278050      1.150263   3.127787
    23    6 C       0.013455      1.109856   2.876690
    24    8 O      -0.559700      1.854385   4.705315
    25    7 N      -0.307244      1.357656   3.949588
    26    6 C      -0.167374      1.120684   3.046690
    27    6 C       0.419599      1.119619   2.460782
    28    6 C       0.036229      1.112773   2.850998
    29    8 O      -0.605336      1.860798   4.744539
    30    7 N      -0.359639      1.582295   3.777345
    31    6 C      -0.096383      1.149714   2.946668
    32    6 C       0.092313      1.127830   2.779857
    33    7 N      -0.221371      1.364241   3.857129
    34    6 C       0.081122      1.129949   2.788929
    35    8 O      -0.561601      1.775232   4.786369
    36    6 C      -0.099573      1.134948   2.964625
    37    6 C      -0.283033      1.172893   3.110140
    38    6 C      -0.204559      1.143917   3.060641
    39    6 C      -0.247223      1.163422   3.083801
    40    1 H       0.270529      0.729471
    41    1 H       0.158142      0.841858
    42    1 H       0.266909      0.733091
    43    1 H       0.112259      0.887741
    44    1 H       0.137678      0.862322
    45    1 H       0.274372      0.725628
    46    1 H       0.102836      0.897164
    47    1 H       0.119043      0.880957
    48    1 H       0.148491      0.851509
    49    1 H       0.255442      0.744558
    50    1 H       0.258266      0.741734
    51    1 H       0.271804      0.728196
    52    1 H       0.099789      0.900211
    53    1 H       0.095121      0.904879
    54    1 H       0.075109      0.924891
    55    1 H       0.087555      0.912445
    56    1 H       0.105417      0.894583
    57    1 H       0.115620      0.884380
    58    1 H       0.097288      0.902712
    59    1 H       0.132877      0.867123
    60    1 H       0.271651      0.728349
    61    1 H       0.110764      0.889236
    62    1 H       0.126918      0.873082
    63    1 H       0.142252      0.857748
    64    1 H       0.131393      0.868607
    65    1 H       0.261146      0.738854
    66    1 H       0.068768      0.931232
    67    1 H       0.110489      0.889511
    68    1 H       0.371212      0.628788
    69    1 H       0.124148      0.875852
    70    1 H       0.102375      0.897625
    71    1 H       0.093344      0.906656
    72    1 H       0.104509      0.895491
    73    1 H       0.103685      0.896315
    74    1 H       0.109416      0.890584
    75    1 H       0.100005      0.899995
    76    1 H       0.092952      0.907048
    77    1 H       0.075007      0.924993
------------------------------------------------------


Wiberg/Mayer (AO) data.
largest (>0.10) Wiberg bond orders for each atom

 ---------------------------------------------------------------------------
     #   Z sym  total        # sym  WBO       # sym  WBO       # sym  WBO
 ---------------------------------------------------------------------------
     1   7 N    3.313 --     7 C    1.197     2 C    0.965    40 O    0.881
                             9 C    0.158
     2   6 C    3.915 --     1 N    0.965    34 C    0.950     3 C    0.924
                            41 O    0.922
     3   6 C    3.871 --     4 C    1.692     5 N    1.177     2 C    0.924
     4   8 C    1.991 --     3 C    1.692     5 N    0.151
     5   7 N    3.267 --     3 C    1.177     6 C    0.966    42 O    0.859
                             4 C    0.151
     6   6 C    3.941 --    27 C    0.966     5 N    0.966    36 C    0.947
                            43 O    0.937
     7   6 C    3.863 --     9 C    1.684     1 N    1.197     8 C    0.916
     8   6 C    3.930 --    10 N    0.974    11 C    0.968    44 O    0.935
                             7 C    0.916
     9   8 C    1.962 --     7 C    1.684     1 N    0.158
    10   7 N    3.301 --    12 C    1.174     8 C    0.974    45 O    0.881
                            15 C    0.161
    11   6 C    3.959 --    13 C    0.968     8 C    0.968    46 O    0.950
                            47 O    0.947
    12   6 C    3.868 --    15 C    1.681    10 N    1.174    14 C    0.943
    13   6 C    3.883 --    16 C    1.687    17 N    1.201    11 C    0.968
    14   6 C    3.918 --    19 C    0.957    12 C    0.943    48 O    0.934
                            18 N    0.934
    15   8 C    1.965 --    12 C    1.681    10 N    0.161
    16   8 C    1.949 --    13 C    1.687    17 N    0.164
    17   7 N    3.226 --    13 C    1.201    49 O    0.913    50 O    0.911
                            16 C    0.164
    18   7 N    3.364 --    20 C    1.293    14 C    0.934    51 O    0.879
                            24 C    0.169
    19   6 C    3.975 --    22 C    1.023    21 C    1.002    14 C    0.957
                            52 O    0.941
    20   6 C    3.885 --    24 C    1.613    18 N    1.293    23 C    0.904
    21   6 C    3.958 --    19 C    1.002    53 O    0.973    54 O    0.973
                            55 O    0.967
    22   6 C    3.953 --    19 C    1.023    56 O    0.969    58 O    0.967
                            57 O    0.963
    23   6 C    3.937 --    26 C    1.013    25 N    0.950    59 O    0.937
                            20 C    0.904
    24   8 C    1.896 --    20 C    1.613    18 N    0.169
    25   7 N    3.351 --    27 C    1.246    23 C    0.950    60 O    0.899
                            29 C    0.147
    26   6 C    3.967 --    23 C    1.013    28 C    0.994    61 O    0.950
                            62 O    0.935
    27   6 C    3.851 --    29 C    1.553    25 N    1.246     6 C    0.966
    28   6 C    3.960 --    31 C    1.609    30 N    1.233    26 C    0.994
    29   8 C    1.876 --    27 C    1.553    25 N    0.147
    30   7 N    2.998 --    32 C    1.522    28 C    1.233    33 N    0.107
    31   6 C    3.882 --    28 C    1.609    33 N    1.125    63 O    0.950
                            32 C    0.105
    32   6 C    3.921 --    30 N    1.522    33 N    1.305    64 O    0.944
                            31 C    0.105
    33   7 N    3.511 --    32 C    1.305    31 C    1.125    65 O    0.897
                            30 N    0.107
    34   6 C    3.883 --    35 C    0.989     2 C    0.950    67 O    0.947
                            66 O    0.934
    35   8 C    1.897 --    34 C    0.989    68 O    0.822
    36   6 C    3.960 --    38 C    0.994    37 C    0.988     6 C    0.947
                            69 O    0.933
    37   6 C    3.951 --    36 C    0.988    71 O    0.977    70 O    0.971
                            72 O    0.968
    38   6 C    3.961 --    39 C    1.022    36 C    0.994    73 O    0.958
                            74 O    0.952
    39   6 C    3.960 --    38 C    1.022    77 O    0.975    76 O    0.974
                            75 O    0.969
    40   1 O    0.927 --     1 N    0.881
    41   1 O    0.975 --     2 C    0.922
    42   1 O    0.929 --     5 N    0.859
    43   1 O    0.987 --     6 C    0.937
    44   1 O    0.981 --     8 C    0.935
    45   1 O    0.925 --    10 N    0.881
    46   1 O    0.989 --    11 C    0.950
    47   1 O    0.986 --    11 C    0.947
    48   1 O    0.978 --    14 C    0.934
    49   1 O    0.935 --    17 N    0.913
    50   1 O    0.933 --    17 N    0.911
    51   1 O    0.926 --    18 N    0.879
    52   1 O    0.990 --    19 C    0.941
    53   1 O    0.991 --    21 C    0.973
    54   1 O    0.994 --    21 C    0.973
    55   1 O    0.992 --    21 C    0.967
    56   1 O    0.989 --    22 C    0.969
    57   1 O    0.987 --    22 C    0.963
    58   1 O    0.991 --    22 C    0.967
    59   1 O    0.982 --    23 C    0.937
    60   1 O    0.926 --    25 N    0.899
    61   1 O    0.988 --    26 C    0.950
    62   1 O    0.984 --    26 C    0.935
    63   1 O    0.980 --    31 C    0.950
    64   1 O    0.983 --    32 C    0.944
    65   1 O    0.932 --    33 N    0.897
    66   1 O    0.995 --    34 C    0.934
    67   1 O    0.988 --    34 C    0.947
    68   1 O    0.862 --    35 C    0.822
    69   1 O    0.985 --    36 C    0.933
    70   1 O    0.990 --    37 C    0.971
    71   1 O    0.991 --    37 C    0.977
    72   1 O    0.989 --    37 C    0.968
    73   1 O    0.989 --    38 C    0.958
    74   1 O    0.988 --    38 C    0.952
    75   1 O    0.990 --    39 C    0.969
    76   1 O    0.991 --    39 C    0.974
    77   1 O    0.994 --    39 C    0.975
 ---------------------------------------------------------------------------

Topologies differ in total number of bonds
Writing topology from bond orders to xtbtopo.mol

Atomic dipole moments (in atomic units):
---------------------------------------------------------
     #    Z                 x            y            z
---------------------------------------------------------
           total    -2.052111    -2.972914    -1.289102
---------------------------------------------------------
         |total|     3.835513     9.748902 Debye


           -------------------------------------------------
          | TOTAL ENERGY            -1902.080088848321 Eh   |
          | GRADIENT NORM               0.333388910786 Eh/α |
           -------------------------------------------------

------------------------------------------------------------------------
 * finished run on 2026/05/23 at 12:31:39.910     
------------------------------------------------------------------------
 total:
 * wall-time:     0 d,  0 h,  0 min, 12.784 sec
 *  cpu-time:     0 d,  0 h,  0 min, 26.760 sec
 * ratio c/w:     2.093 speedup
 SCF:
 * wall-time:     0 d,  0 h,  0 min, 12.358 sec
 *  cpu-time:     0 d,  0 h,  0 min, 26.477 sec
 * ratio c/w:     2.142 speedup

normal termination of xtb
