      -----------------------------------------------------------      
     |                   =====================                   |     
     |                           x T B                           |     
     |                   =====================                   |     
     |                         S. Grimme                         |     
     |          Mulliken Center for Theoretical Chemistry        |     
     |                    University of Bonn                     |     
      -----------------------------------------------------------      

   * xtb version 6.7.1 (26dd68d) compiled by 'froitzheim@fs7' on 2026-05-14

   xtb is free software: you can redistribute it and/or modify it under
   the terms of the GNU Lesser General Public License as published by
   the Free Software Foundation, either version 3 of the License, or
   (at your option) any later version.
   
   xtb is distributed in the hope that it will be useful,
   but WITHOUT ANY WARRANTY; without even the implied warranty of
   MERCHANTABILITY or FITNESS FOR A PARTICULAR PURPOSE.  See the
   GNU Lesser General Public License for more details.
   
   Cite this work as:
   * C. Bannwarth, E. Caldeweyher, S. Ehlert, A. Hansen, P. Pracht,
     J. Seibert, S. Spicher, S. Grimme, WIREs Comput. Mol. Sci., 2020, 11,
     e01493. DOI: 10.1002/wcms.1493
   
   for g-xTB:
   * T. Froitzheim, M. Müller, A. Hansen, S. Grimme, ChemRxiv, 2025, preprint.
     DOI: 10.26434/chemrxiv-2025-bjxv
   for GFN2-xTB:
   * C. Bannwarth, S. Ehlert and S. Grimme., J. Chem. Theory Comput., 2019,
     15, 1652-1671. DOI: 10.1021/acs.jctc.8b01176
   for GFN1-xTB:
   * S. Grimme, C. Bannwarth, P. Shushkov, J. Chem. Theory Comput., 2017,
     13, 1989-2009. DOI: 10.1021/acs.jctc.7b00118
   for GFN0-xTB:
   * P. Pracht, E. Caldeweyher, S. Ehlert, S. Grimme, ChemRxiv, 2019, preprint.
     DOI: 10.26434/chemrxiv.8326202.v1
   for GFN-FF:
   * S. Spicher and S. Grimme, Angew. Chem. Int. Ed., 2020, 59, 15665-15673.
     DOI: 10.1002/anie.202004239
   
   for ALPB and GBSA implicit solvation:
   * S. Ehlert, M. Stahn, S. Spicher, S. Grimme, J. Chem. Theory Comput.,
     2021, 17, 4250-4261. DOI: 10.1021/acs.jctc.1c00471
   
   for ddCOSMO and CPCM-X implicit solvation:
   * M. Stahn, S. Ehlert, S. Grimme, J. Phys. Chem. A,
     2023, XX, XXXX-XXXX. DOI: 10.1021/acs.jpca.3c04382
   
   for DFT-D4:
   * E. Caldeweyher, C. Bannwarth and S. Grimme, J. Chem. Phys., 2017,
     147, 034112. DOI: 10.1063/1.4993215
   * E. Caldeweyher, S. Ehlert, A. Hansen, H. Neugebauer, S. Spicher,
     C. Bannwarth and S. Grimme, J. Chem. Phys., 2019, 150, 154122.
     DOI: 10.1063/1.5090222
   * E. Caldeweyher, J.-M. Mewes, S. Ehlert and S. Grimme, Phys. Chem. Chem. Phys.
     2020, 22, 8499-8512. DOI: 10.1039/D0CP00502A
   
   for sTDA-xTB:
   * S. Grimme and C. Bannwarth, J. Chem. Phys., 2016, 145, 054103.
     DOI: 10.1063/1.4959605
   
   in the mass-spec context:
   * V. Asgeirsson, C. Bauer and S. Grimme, Chem. Sci., 2017, 8, 4879.
     DOI: 10.1039/c7sc00601b
   * J. Koopman and S. Grimme, ACS Omega 2019, 4, 12, 15120-15133.
     DOI: 10.1021/acsomega.9b02011
   
   for metadynamics refer to:
   * S. Grimme, J. Chem. Theory Comput., 2019, 155, 2847-2862
     DOI: 10.1021/acs.jctc.9b00143
   
   for SPH calculations refer to:
   * S. Spicher and S. Grimme, J. Chem. Theory Comput., 2021, 17, 1701-1714
     DOI: 10.1021/acs.jctc.0c01306
   
   for ONIOM refer to:
   * C. Plett, A. Katbashev, S. Ehlert, S. Grimme, M. Bursch,
     Phys. Chem. Chem. Phys., 2023, 25, 17860-17868. DOI: 10.1039/D3CP02178E
   
   for DIPRO refer to:
   * J. Kohn, N. Gildemeister, S. Grimme, D. Fazzi, A. Hansen,
     J. Chem. Phys. 159, 144106 (2023). DOI: 10.1063/5.0167484
   
   for PTB refer to:
   * S. Grimme, M. Mueller, A. Hansen, J. Chem. Phys., 2023, 158, 124111.
     DOI: 10.1063/5.0137838
   
   with help from (in alphabetical order)
   P. Atkinson, C. Bannwarth, F. Bohle, G. Brandenburg, E. Caldeweyher,
   M. Checinski, S. Dohm, S. Ehlert, S. Ehrlich, M. Friede, T. Froitzheim,
   I. Gerasimov, C. Hölzer, A. Katbashev, J. Kohn, J. Koopman, C. Lavigne,
   S. Lehtola, F. März, M. Müller, F. Musil, H. Neugebauer, J. Pisarek,
   C. Plett, P. Pracht, F. Pultar, J. Seibert, P. Shushkov, S. Spicher,
   M. Stahn, M. Steiner, T. Strunk, J. Stückrath, T. Rose, and J. Unsleber
   
 * started run on 2026/05/23 at 12:45:08.221     
   ID    Z sym.   atoms
    1    7 N      1, 5, 10, 17, 18, 25, 30, 33
    2    6 C      2, 3, 6-8, 11-14, 19-23, 26-28, 31, 32, 34, 36-39
    3    8 O      4, 9, 15, 16, 24, 29, 35
    4    1 H      40-77

           -------------------------------------------------
          |                Calculation Setup                |
           -------------------------------------------------

          program call               : /home/xchen/software/xtb-6.7.1-gxtb/bin/xtb /home/xchen/Test/benchmark/md_sampled/05_5_0513_0/snap_0181.xyz --charge 0 --gxtb --norestart
          coordinate file            : /home/xchen/Test/benchmark/md_sampled/05_5_0513_0/snap_0181.xyz
          omp threads                :                    48

core increment energy         -1.7251241620057E+03 Eh
dispersion energy              1.7306170428530E-02 Eh
molecular charge               0.0000000000000E+00 e
number of electrons            2.1599999999805E+02 e
number of unpaired electrons   0.0000000000000E+00 e
wavefunction                   restricted
integral cutoff                2.6907767250513E+01 bohr
energy convergence             1.0000000000000E-06 Eh
density convergence            2.0000000000000E-05 e

------------------------------------------------------------
  cycle        total energy    energy error   density error
------------------------------------------------------------
      1     -1901.070512135  -1.7596366E+02   0.0000000E+00
      2     -1901.402298800  -3.3178667E-01   2.3048123E-02
      3     -1901.613873043  -2.1157424E-01   1.8278623E-02
      4     -1902.058528647  -4.4465560E-01   1.4539771E-02
      5     -1902.066642676  -8.1140289E-03   1.0887099E-03
      6     -1902.067191600  -5.4892370E-04   2.3297795E-04
      7     -1902.067246751  -5.5151728E-05   7.4117598E-05
      8     -1902.067251101  -4.3500606E-06   2.2167331E-05
      9     -1902.067251728  -6.2699789E-07   5.2126810E-06
------------------------------------------------------------

electronic energy             -1.7696039589307E+02 Eh
total energy                  -1.9020672517283E+03 Eh

Post processing:
 | Mayer-Wiberg bond orders
 | Molecular Multipole Moments

 total:                                  11.302 sec
 - increment                              0.000 sec (  0%)
 - repulsion                              0.029 sec (  0%)
 - dispersion                             0.270 sec (  2%)
 - coulomb                                0.189 sec (  1%)
 - exchange                               0.009 sec (  0%)
 - hamiltonian                            0.371 sec (  3%)
 - acp                                    0.361 sec (  3%)
 - spin polarization                      0.000 sec (  0%)
 - post processing                        0.088 sec (  0%)
 - scc                                    9.195 sec ( 81%)
 - coulomb gradient                       0.052 sec (  0%)
 - dispersion gradient                    0.042 sec (  0%)
 - exchange gradient                      0.124 sec (  1%)
 - repulsion gradient                     0.006 sec (  0%)
 - acp gradient                           0.235 sec (  2%)
 - hamiltonian gradient                   0.412 sec (  3%)
 - gradient                               0.872 sec (  7%)

         :::::::::::::::::::::::::::::::::::::::::::::::::::::
         ::                     SUMMARY                     ::
         :::::::::::::::::::::::::::::::::::::::::::::::::::::
         :: total energy           -1902.067251728340 Eh    ::
         :: gradient norm              0.388503568592 Eh/a0 ::
         :: HOMO-LUMO gap              9.540220340270 eV    ::
         ::.................................................::
         :: add. restraining           0.000000000000 Eh    ::
         :: total charge               0.000000000000 e     ::
         :::::::::::::::::::::::::::::::::::::::::::::::::::::

           -------------------------------------------------
          |                Property Printout                |
           -------------------------------------------------

    * Orbital Energies and Occupations
------------------------------------------------------------------
      #    Occupation            Energy/Eh            Energy/eV
------------------------------------------------------------------
      1        2.0000           -1.3608205             -37.0298
    ...           ...                  ...                  ...
     96        2.0000           -0.3868195             -10.5259
     97        2.0000           -0.3833934             -10.4327
     98        2.0000           -0.3815600             -10.3828
     99        2.0000           -0.3787872             -10.3073
    100        2.0000           -0.3741973             -10.1824
    101        2.0000           -0.3705206             -10.0824
    102        2.0000           -0.3686843             -10.0324
    103        2.0000           -0.3671824              -9.9915
    104        2.0000           -0.3657264              -9.9519
    105        2.0000           -0.3571073              -9.7174
    106        2.0000           -0.3555181              -9.6741
    107        2.0000           -0.3525629              -9.5937
    108        2.0000           -0.3448719              -9.3844 (HOMO)
    109                          0.0057247               0.1558 (LUMO)
    110                          0.0129090               0.3513
    111                          0.0188337               0.5125
    112                          0.0254956               0.6938
    113                          0.0329593               0.8969
    114                          0.0408742               1.1122
    115                          0.0443766               1.2075
    116                          0.0643354               1.7507
    117                          0.1614984               4.3946
    118                          0.1717548               4.6737
    119                          0.1907351               5.1902
    ...                                ...                  ...
    194                          0.8136913              22.1417
------------------------------------------------------------------
               HL-Gap            0.3505966 Eh            9.5402 eV
------------------------------------------------------------------

Atomic charges and shell populations (in atomic units):
------------------------------------------------------
     #    Z                q          p(s)       p(p)
------------------------------------------------------
     1    7 N      -0.402985      1.371385   4.031600
     2    6 C      -0.041935      1.156640   2.885295
     3    6 C       0.434477      1.095809   2.469714
     4    8 O      -0.503619      1.854018   4.649601
     5    7 N      -0.336964      1.384563   3.952401
     6    6 C       0.018323      1.136537   2.845140
     7    6 C       0.445195      1.087263   2.467541
     8    6 C       0.020827      1.107018   2.872156
     9    8 O      -0.460223      1.848943   4.611280
    10    7 N      -0.364917      1.353121   4.011796
    11    6 C      -0.224295      1.154980   3.069315
    12    6 C       0.428253      1.105335   2.466412
    13    6 C       0.398816      1.121052   2.480133
    14    6 C      -0.000140      1.125317   2.874824
    15    8 O      -0.520533      1.849764   4.670769
    16    8 O      -0.532787      1.868482   4.664305
    17    7 N      -0.422759      1.406266   4.016493
    18    7 N      -0.343352      1.352152   3.991200
    19    6 C      -0.118512      1.131592   2.986920
    20    6 C       0.430811      1.089046   2.480143
    21    6 C      -0.239560      1.177182   3.062378
    22    6 C      -0.255869      1.159860   3.096009
    23    6 C      -0.016377      1.146040   2.870337
    24    8 O      -0.513021      1.850564   4.662457
    25    7 N      -0.263287      1.355527   3.907760
    26    6 C      -0.165770      1.152225   3.013545
    27    6 C       0.406404      1.101610   2.491986
    28    6 C       0.023492      1.106981   2.869526
    29    8 O      -0.650121      1.854992   4.795129
    30    7 N      -0.342616      1.568807   3.773809
    31    6 C      -0.071272      1.150054   2.921218
    32    6 C       0.095202      1.131561   2.773237
    33    7 N      -0.243373      1.359024   3.884349
    34    6 C       0.030419      1.126573   2.843008
    35    8 O      -0.533756      1.809522   4.724234
    36    6 C      -0.088453      1.141263   2.947190
    37    6 C      -0.257204      1.162946   3.094258
    38    6 C      -0.176539      1.155474   3.021066
    39    6 C      -0.260130      1.185534   3.074596
    40    1 H       0.254318      0.745682
    41    1 H       0.126904      0.873096
    42    1 H       0.274604      0.725396
    43    1 H       0.114357      0.885643
    44    1 H       0.135763      0.864237
    45    1 H       0.275536      0.724464
    46    1 H       0.124397      0.875603
    47    1 H       0.135748      0.864252
    48    1 H       0.152354      0.847646
    49    1 H       0.258199      0.741801
    50    1 H       0.237566      0.762434
    51    1 H       0.284750      0.715250
    52    1 H       0.116387      0.883613
    53    1 H       0.093703      0.906297
    54    1 H       0.061169      0.938831
    55    1 H       0.093522      0.906478
    56    1 H       0.085618      0.914382
    57    1 H       0.129397      0.870603
    58    1 H       0.078888      0.921112
    59    1 H       0.127283      0.872717
    60    1 H       0.274153      0.725847
    61    1 H       0.117998      0.882002
    62    1 H       0.131840      0.868160
    63    1 H       0.122538      0.877462
    64    1 H       0.120590      0.879410
    65    1 H       0.270165      0.729835
    66    1 H       0.086486      0.913514
    67    1 H       0.101951      0.898049
    68    1 H       0.360921      0.639079
    69    1 H       0.109252      0.890748
    70    1 H       0.098224      0.901776
    71    1 H       0.107509      0.892491
    72    1 H       0.095906      0.904094
    73    1 H       0.108648      0.891352
    74    1 H       0.107016      0.892984
    75    1 H       0.056597      0.943403
    76    1 H       0.084189      0.915811
    77    1 H       0.103702      0.896298
------------------------------------------------------


Wiberg/Mayer (AO) data.
largest (>0.10) Wiberg bond orders for each atom

 ---------------------------------------------------------------------------
     #   Z sym  total        # sym  WBO       # sym  WBO       # sym  WBO
 ---------------------------------------------------------------------------
     1   7 N    3.243 --     7 C    1.102     2 C    0.972    40 O    0.901
                             9 C    0.167
     2   6 C    3.923 --    34 C    0.975     1 N    0.972    41 O    0.936
                             3 C    0.899
     3   6 C    3.873 --     4 C    1.697     5 N    1.198     2 C    0.899
     4   8 C    1.979 --     3 C    1.697     5 N    0.157
     5   7 N    3.298 --     3 C    1.198     6 C    0.966    42 O    0.864
                             4 C    0.157
     6   6 C    3.928 --     5 N    0.966    27 C    0.955    43 O    0.940
                            36 C    0.933
     7   6 C    3.872 --     9 C    1.753     1 N    1.102     8 C    0.958
     8   6 C    3.939 --    10 N    0.976     7 C    0.958    11 C    0.955
                            44 O    0.932
     9   8 C    2.039 --     7 C    1.753     1 N    0.167
    10   7 N    3.268 --    12 C    1.149     8 C    0.976    45 O    0.879
                            15 C    0.149
    11   6 C    3.957 --    13 C    0.985     8 C    0.955    47 O    0.949
                            46 O    0.942
    12   6 C    3.854 --    15 C    1.708    10 N    1.149    14 C    0.923
    13   6 C    3.872 --    16 C    1.659    17 N    1.192    11 C    0.985
    14   6 C    3.930 --    18 N    0.995    19 C    0.941    48 O    0.927
                            12 C    0.923
    15   8 C    1.985 --    12 C    1.708    10 N    0.149
    16   8 C    1.916 --    13 C    1.659    17 N    0.155
    17   7 N    3.218 --    13 C    1.192    50 O    0.923    49 O    0.911
                            16 C    0.155
    18   7 N    3.344 --    20 C    1.219    14 C    0.995    51 O    0.861
                            24 C    0.170
    19   6 C    3.971 --    22 C    1.011    21 C    1.008    52 O    0.950
                            14 C    0.941
    20   6 C    3.878 --    24 C    1.687    18 N    1.219    23 C    0.907
    21   6 C    3.959 --    19 C    1.008    53 O    0.973    55 O    0.969
                            54 O    0.969
    22   6 C    3.955 --    19 C    1.011    56 O    0.976    58 O    0.974
                            57 O    0.962
    23   6 C    3.918 --    25 N    0.958    26 C    0.957    59 O    0.954
                            20 C    0.907
    24   8 C    1.980 --    20 C    1.687    18 N    0.170
    25   7 N    3.431 --    27 C    1.350    23 C    0.958    60 O    0.890
                            29 C    0.150
    26   6 C    3.954 --    28 C    1.004    61 O    0.958    23 C    0.957
                            62 O    0.944
    27   6 C    3.864 --    29 C    1.482    25 N    1.350     6 C    0.955
    28   6 C    3.951 --    31 C    1.566    30 N    1.231    26 C    1.004
    29   8 C    1.816 --    27 C    1.482    25 N    0.150
    30   7 N    3.016 --    32 C    1.569    28 C    1.231
    31   6 C    3.885 --    28 C    1.566    33 N    1.187    63 O    0.945
                            32 C    0.104
    32   6 C    3.906 --    30 N    1.569    33 N    1.235    64 O    0.936
                            31 C    0.104
    33   7 N    3.506 --    32 C    1.235    31 C    1.187    65 O    0.895
    34   6 C    3.897 --    35 C    0.988     2 C    0.975    67 O    0.947
                            66 O    0.941
    35   8 C    1.917 --    34 C    0.988    68 O    0.843
    36   6 C    3.964 --    38 C    1.005    37 C    1.001    69 O    0.942
                             6 C    0.933
    37   6 C    3.956 --    36 C    1.001    70 O    0.972    72 O    0.971
                            71 O    0.969
    38   6 C    3.959 --    36 C    1.005    39 C    0.995    74 O    0.962
                            73 O    0.960
    39   6 C    3.957 --    38 C    0.995    75 O    0.981    77 O    0.976
                            76 O    0.976
    40   1 O    0.935 --     1 N    0.901
    41   1 O    0.984 --     2 C    0.936
    42   1 O    0.925 --     5 N    0.864
    43   1 O    0.987 --     6 C    0.940
    44   1 O    0.982 --     8 C    0.932
    45   1 O    0.924 --    10 N    0.879
    46   1 O    0.985 --    11 C    0.942
    47   1 O    0.982 --    11 C    0.949
    48   1 O    0.977 --    14 C    0.927
    49   1 O    0.933 --    17 N    0.911
    50   1 O    0.944 --    17 N    0.923
    51   1 O    0.919 --    18 N    0.861
    52   1 O    0.986 --    19 C    0.950
    53   1 O    0.991 --    21 C    0.973
    54   1 O    0.996 --    21 C    0.969
    55   1 O    0.991 --    21 C    0.969
    56   1 O    0.993 --    22 C    0.976
    57   1 O    0.983 --    22 C    0.962
    58   1 O    0.994 --    22 C    0.974
    59   1 O    0.984 --    23 C    0.954
    60   1 O    0.925 --    25 N    0.890
    61   1 O    0.986 --    26 C    0.958
    62   1 O    0.983 --    26 C    0.944
    63   1 O    0.985 --    31 C    0.945
    64   1 O    0.985 --    32 C    0.936
    65   1 O    0.927 --    33 N    0.895
    66   1 O    0.993 --    34 C    0.941
    67   1 O    0.990 --    34 C    0.947
    68   1 O    0.870 --    35 C    0.843
    69   1 O    0.988 --    36 C    0.942
    70   1 O    0.990 --    37 C    0.972
    71   1 O    0.988 --    37 C    0.969
    72   1 O    0.991 --    37 C    0.971
    73   1 O    0.988 --    38 C    0.960
    74   1 O    0.989 --    38 C    0.962
    75   1 O    0.997 --    39 C    0.981
    76   1 O    0.993 --    39 C    0.976
    77   1 O    0.989 --    39 C    0.976
 ---------------------------------------------------------------------------

Topologies differ in total number of bonds
Writing topology from bond orders to xtbtopo.mol

Atomic dipole moments (in atomic units):
---------------------------------------------------------
     #    Z                 x            y            z
---------------------------------------------------------
           total    -2.534623    -2.395307    -2.633681
---------------------------------------------------------
         |total|     4.370136    11.107778 Debye


           -------------------------------------------------
          | TOTAL ENERGY            -1902.067251728340 Eh   |
          | GRADIENT NORM               0.388503568592 Eh/α |
           -------------------------------------------------

------------------------------------------------------------------------
 * finished run on 2026/05/23 at 12:45:20.505     
------------------------------------------------------------------------
 total:
 * wall-time:     0 d,  0 h,  0 min, 12.283 sec
 *  cpu-time:     0 d,  0 h,  0 min, 22.288 sec
 * ratio c/w:     1.815 speedup
 SCF:
 * wall-time:     0 d,  0 h,  0 min, 11.822 sec
 *  cpu-time:     0 d,  0 h,  0 min, 21.988 sec
 * ratio c/w:     1.860 speedup

normal termination of xtb
