      -----------------------------------------------------------      
     |                   =====================                   |     
     |                           x T B                           |     
     |                   =====================                   |     
     |                         S. Grimme                         |     
     |          Mulliken Center for Theoretical Chemistry        |     
     |                    University of Bonn                     |     
      -----------------------------------------------------------      

   * xtb version 6.7.1 (edcfbbe) compiled by 'albert@albert-system' on 2024-07-22

   xtb is free software: you can redistribute it and/or modify it under
   the terms of the GNU Lesser General Public License as published by
   the Free Software Foundation, either version 3 of the License, or
   (at your option) any later version.
   
   xtb is distributed in the hope that it will be useful,
   but WITHOUT ANY WARRANTY; without even the implied warranty of
   MERCHANTABILITY or FITNESS FOR A PARTICULAR PURPOSE.  See the
   GNU Lesser General Public License for more details.
   
   Cite this work as:
   * C. Bannwarth, E. Caldeweyher, S. Ehlert, A. Hansen, P. Pracht,
     J. Seibert, S. Spicher, S. Grimme, WIREs Comput. Mol. Sci., 2020, 11,
     e01493. DOI: 10.1002/wcms.1493
   
   for GFN2-xTB:
   * C. Bannwarth, S. Ehlert and S. Grimme., J. Chem. Theory Comput., 2019,
     15, 1652-1671. DOI: 10.1021/acs.jctc.8b01176
   for GFN1-xTB:
   * S. Grimme, C. Bannwarth, P. Shushkov, J. Chem. Theory Comput., 2017,
     13, 1989-2009. DOI: 10.1021/acs.jctc.7b00118
   for GFN0-xTB:
   * P. Pracht, E. Caldeweyher, S. Ehlert, S. Grimme, ChemRxiv, 2019, preprint.
     DOI: 10.26434/chemrxiv.8326202.v1
   for GFN-FF:
   * S. Spicher and S. Grimme, Angew. Chem. Int. Ed., 2020, 59, 15665-15673.
     DOI: 10.1002/anie.202004239
   
   for ALPB and GBSA implicit solvation:
   * S. Ehlert, M. Stahn, S. Spicher, S. Grimme, J. Chem. Theory Comput.,
     2021, 17, 4250-4261. DOI: 10.1021/acs.jctc.1c00471
   
   for ddCOSMO and CPCM-X implicit solvation:
   * M. Stahn, S. Ehlert, S. Grimme, J. Phys. Chem. A,
     2023, XX, XXXX-XXXX. DOI: 10.1021/acs.jpca.3c04382
   
   for DFT-D4:
   * E. Caldeweyher, C. Bannwarth and S. Grimme, J. Chem. Phys., 2017,
     147, 034112. DOI: 10.1063/1.4993215
   * E. Caldeweyher, S. Ehlert, A. Hansen, H. Neugebauer, S. Spicher,
     C. Bannwarth and S. Grimme, J. Chem. Phys., 2019, 150, 154122.
     DOI: 10.1063/1.5090222
   * E. Caldeweyher, J.-M. Mewes, S. Ehlert and S. Grimme, Phys. Chem. Chem. Phys.
     2020, 22, 8499-8512. DOI: 10.1039/D0CP00502A
   
   for sTDA-xTB:
   * S. Grimme and C. Bannwarth, J. Chem. Phys., 2016, 145, 054103.
     DOI: 10.1063/1.4959605
   
   in the mass-spec context:
   * V. Asgeirsson, C. Bauer and S. Grimme, Chem. Sci., 2017, 8, 4879.
     DOI: 10.1039/c7sc00601b
   * J. Koopman and S. Grimme, ACS Omega 2019, 4, 12, 15120-15133.
     DOI: 10.1021/acsomega.9b02011
   
   for metadynamics refer to:
   * S. Grimme, J. Chem. Theory Comput., 2019, 155, 2847-2862
     DOI: 10.1021/acs.jctc.9b00143
   
   for SPH calculations refer to:
   * S. Spicher and S. Grimme, J. Chem. Theory Comput., 2021, 17, 1701-1714
     DOI: 10.1021/acs.jctc.0c01306
   
   for ONIOM refer to:
   * C. Plett, A. Katbashev, S. Ehlert, S. Grimme, M. Bursch,
     Phys. Chem. Chem. Phys., 2023, 25, 17860-17868. DOI: 10.1039/D3CP02178E
   
   for DIPRO refer to:
   * J. Kohn, N. Gildemeister, S. Grimme, D. Fazzi, A. Hansen,
     J. Chem. Phys., 2023, just accepted.
   
   for PTB refer to:
   * S. Grimme, M. Mueller, A. Hansen, J. Chem. Phys., 2023, 158, 124111.
     DOI: 10.1063/5.0137838
   
   with help from (in alphabetical order)
   P. Atkinson, C. Bannwarth, F. Bohle, G. Brandenburg, E. Caldeweyher
   M. Checinski, S. Dohm, S. Ehlert, S. Ehrlich, I. Gerasimov, C. Hölzer
   A. Katbashev, J. Kohn, J. Koopman, C. Lavigne, S. Lehtola, F. März, M. Müller,
   F. Musil, H. Neugebauer, J. Pisarek, C. Plett, P. Pracht, F. Pultar,
   J. Seibert, P. Shushkov, S. Spicher, M. Stahn, M. Steiner, T. Strunk,
   J. Stückrath, T. Rose, and J. Unsleber
   
 * started run on 2026/05/23 at 08:19:38.898     
   ID    Z sym.   atoms
    1    7 N      1, 5, 10, 16, 18, 21, 27, 34, 42, 50
    2    6 C      2, 3, 6-8, 11-14, 17, 19, 20, 22-25, 28-31, 35-38, 40, 43,
                  44, 46-48
    3    8 O      4, 9, 15, 26, 32, 39, 41, 49
    4   16 S      33, 45
    5    1 H      51-96

           -------------------------------------------------
          |                Calculation Setup                |
           -------------------------------------------------

          program call               : /home/xchen/software/xtb-6.7.1/xtb-dist/bin/xtb /home/xchen/Test/benchmark/md_sampled/02_6_0901_0/snap_0159.xyz --charge 0 --gfn 2 --norestart
          coordinate file            : /home/xchen/Test/benchmark/md_sampled/02_6_0901_0/snap_0159.xyz
          omp threads                :                    48


           -------------------------------------------------
          |                 G F N 2 - x T B                 |
           -------------------------------------------------

        Reference                      10.1021/acs.jctc.8b01176
      * Hamiltonian:
        H0-scaling (s, p, d)           1.850000    2.230000    2.230000
        zeta-weighting                 0.500000
      * Dispersion:
        s8                             2.700000
        a1                             0.520000
        a2                             5.000000
        s9                             5.000000
      * Repulsion:
        kExp                           1.500000    1.000000
        rExp                           1.000000
      * Coulomb:
        alpha                          2.000000
        third order                    shell-resolved
        anisotropic                    true
        a3                             3.000000
        a5                             4.000000
        cn-shift                       1.200000
        cn-exp                         4.000000
        max-rad                        5.000000


          ...................................................
          :                      SETUP                      :
          :.................................................:
          :  # basis functions                 258          :
          :  # atomic orbitals                 256          :
          :  # shells                          148          :
          :  # electrons                       276          :
          :  max. iterations                   250          :
          :  Hamiltonian                  GFN2-xTB          :
          :  restarted?                      false          :
          :  GBSA solvation                  false          :
          :  PC potential                    false          :
          :  electronic temp.          300.0000000     K    :
          :  accuracy                    1.0000000          :
          :  -> integral cutoff          0.2500000E+02      :
          :  -> integral neglect         0.1000000E-07      :
          :  -> SCF convergence          0.1000000E-05 Eh   :
          :  -> wf. convergence          0.1000000E-03 e    :
          :  Broyden damping             0.4000000          :
          :  net charge                          0          :
          :  unpaired electrons                  0          :
          ...................................................

 iter      E             dE          RMSdq      gap      omega  full diag
   1   -157.0870145 -0.157087E+03  0.436E+00    3.94       0.0  T
   2   -157.6021723 -0.515158E+00  0.242E+00    3.15       1.0  T
   3   -157.6491334 -0.469612E-01  0.137E+00    3.14       1.0  T
   4   -157.6562839 -0.715043E-02  0.337E-01    2.65       1.0  T
   5   -157.6616598 -0.537593E-02  0.152E-01    2.76       1.0  T
   6   -157.6617078 -0.480330E-04  0.643E-02    2.80       1.0  T
   7   -157.6618592 -0.151414E-03  0.310E-02    2.80       1.0  T
   8   -157.6618871 -0.278112E-04  0.125E-02    2.81       1.0  T
   9   -157.6618885 -0.147286E-05  0.439E-03    2.81       2.3  T
  10   -157.6618890 -0.524524E-06  0.162E-03    2.81       6.3  T
  11   -157.6618891 -0.366121E-07  0.788E-04    2.81      13.0  T
  12   -157.6618891 -0.102737E-07  0.321E-04    2.81      31.8  T

   *** convergence criteria satisfied after 12 iterations ***

         #    Occupation            Energy/Eh            Energy/eV
      -------------------------------------------------------------
         1        2.0000           -0.7294618             -19.8497
       ...           ...                  ...                  ...
       132        2.0000           -0.4038688             -10.9898
       133        2.0000           -0.3948093             -10.7433
       134        2.0000           -0.3930904             -10.6965
       135        2.0000           -0.3881220             -10.5613
       136        2.0000           -0.3852584             -10.4834
       137        2.0000           -0.3625608              -9.8658
       138        2.0000           -0.3612994              -9.8315 (HOMO)
       139                         -0.2581455              -7.0245 (LUMO)
       140                         -0.2510231              -6.8307
       141                         -0.2453711              -6.6769
       142                         -0.2429071              -6.6098
       143                         -0.2369271              -6.4471
       ...                                ...                  ...
       256                          0.6723901              18.2967
      -------------------------------------------------------------
                  HL-Gap            0.1031539 Eh            2.8070 eV
             Fermi-level           -0.3097225 Eh           -8.4280 eV

 SCC (total)                   0 d,  0 h,  0 min,  9.275 sec
 SCC setup                      ...        0 min,  0.020 sec (  0.215%)
 Dispersion                     ...        0 min,  0.083 sec (  0.899%)
 classical contributions        ...        0 min,  0.003 sec (  0.036%)
 integral evaluation            ...        0 min,  0.216 sec (  2.332%)
 iterations                     ...        0 min,  8.286 sec ( 89.335%)
 molecular gradient             ...        0 min,  0.658 sec (  7.091%)
 printout                       ...        0 min,  0.008 sec (  0.090%)

         :::::::::::::::::::::::::::::::::::::::::::::::::::::
         ::                     SUMMARY                     ::
         :::::::::::::::::::::::::::::::::::::::::::::::::::::
         :: total energy            -155.901491974264 Eh    ::
         :: gradient norm              0.419751287013 Eh/a0 ::
         :: HOMO-LUMO gap              2.806960578077 eV    ::
         ::.................................................::
         :: SCC energy              -157.654629112640 Eh    ::
         :: -> isotropic ES            0.326619286714 Eh    ::
         :: -> anisotropic ES          0.009311668191 Eh    ::
         :: -> anisotropic XC          0.059527617168 Eh    ::
         :: -> dispersion             -0.124164950918 Eh    ::
         :: repulsion energy           1.753137138376 Eh    ::
         :: add. restraining           0.000000000000 Eh    ::
         :: total charge              -0.000000000000 e     ::
         :::::::::::::::::::::::::::::::::::::::::::::::::::::

           -------------------------------------------------
          |                Property Printout                |
           -------------------------------------------------

    * Orbital Energies and Occupations

         #    Occupation            Energy/Eh            Energy/eV
      -------------------------------------------------------------
         1        2.0000           -0.7294618             -19.8497
       ...           ...                  ...                  ...
       126        2.0000           -0.4188670             -11.3980
       127        2.0000           -0.4134870             -11.2516
       128        2.0000           -0.4106156             -11.1734
       129        2.0000           -0.4082435             -11.1089
       130        2.0000           -0.4061461             -11.0518
       131        2.0000           -0.4042458             -11.0001
       132        2.0000           -0.4038688             -10.9898
       133        2.0000           -0.3948093             -10.7433
       134        2.0000           -0.3930904             -10.6965
       135        2.0000           -0.3881220             -10.5613
       136        2.0000           -0.3852584             -10.4834
       137        2.0000           -0.3625608              -9.8658
       138        2.0000           -0.3612994              -9.8315 (HOMO)
       139                         -0.2581455              -7.0245 (LUMO)
       140                         -0.2510231              -6.8307
       141                         -0.2453711              -6.6769
       142                         -0.2429071              -6.6098
       143                         -0.2369271              -6.4471
       144                         -0.2355775              -6.4104
       145                         -0.2318106              -6.3079
       146                         -0.2300983              -6.2613
       147                         -0.2144864              -5.8365
       148                         -0.2071652              -5.6373
       149                         -0.2032555              -5.5309
       ...                                ...                  ...
       256                          0.6723901              18.2967
      -------------------------------------------------------------
                  HL-Gap            0.1031539 Eh            2.8070 eV
             Fermi-level           -0.3097225 Eh           -8.4280 eV

     #   Z          covCN         q      C6AA      α(0)
     1   7 N        2.693    -0.203    25.402     7.486
     2   6 C        3.802     0.015    20.330     6.419
     3   6 C        2.767     0.282    22.235     7.722
     4   8 O        0.858    -0.390    21.491     6.215
     5   7 N        2.691    -0.206    25.483     7.497
     6   6 C        3.765     0.018    20.311     6.424
     7   6 C        2.770     0.253    22.755     7.812
     8   6 C        3.806     0.034    20.004     6.367
     9   8 O        0.857    -0.461    22.935     6.421
    10   7 N        2.721    -0.183    24.965     7.421
    11   6 C        3.801    -0.076    21.950     6.670
    12   6 C        2.761     0.271    22.419     7.754
    13   6 C        3.059     0.061    26.587     8.456
    14   6 C        3.915     0.020    20.175     6.384
    15   8 O        0.862    -0.403    21.729     6.250
    16   7 N        1.892    -0.295    28.485     7.912
    17   6 C        2.965    -0.008    28.220     8.713
    18   7 N        2.760    -0.117    23.542     7.206
    19   6 C        3.812    -0.052    21.490     6.598
    20   6 C        2.972     0.063    26.590     8.458
    21   7 N        2.780    -0.083    22.862     7.101
    22   6 C        3.791     0.013    20.362     6.426
    23   6 C        2.798     0.258    22.662     7.798
    24   6 C        3.883    -0.054    21.497     6.592
    25   6 C        3.796     0.019    20.256     6.409
    26   8 O        0.859    -0.441    22.513     6.362
    27   7 N        2.689    -0.225    25.907     7.560
    28   6 C        3.852    -0.058    21.578     6.607
    29   6 C        2.763     0.268    22.473     7.763
    30   6 C        3.797    -0.014    20.832     6.499
    31   6 C        3.799     0.022    20.207     6.401
    32   8 O        0.857    -0.384    21.369     6.198
    33  16 S        1.986    -0.199   149.531    20.581
    34   7 N        2.686    -0.165    24.565     7.361
    35   6 C        3.808    -0.066    21.764     6.641
    36   6 C        3.746    -0.051    21.554     6.622
    37   6 C        2.733     0.239    23.006     7.853
    38   6 C        3.796    -0.099    22.403     6.740
    39   8 O        0.856    -0.456    22.833     6.407
    40   6 C        2.759     0.290    22.079     7.695
    41   8 O        0.861    -0.440    22.487     6.358
    42   7 N        2.638    -0.275    27.107     7.733
    43   6 C        3.837    -0.078    21.961     6.667
    44   6 C        3.793    -0.013    20.811     6.496
    45  16 S        1.957    -0.163   147.948    20.472
    46   6 C        3.670    -0.054    21.797     6.693
    47   6 C        3.800    -0.092    22.261     6.718
    48   6 C        2.743     0.276    22.335     7.738
    49   8 O        0.857    -0.430    22.287     6.329
    50   7 N        2.629    -0.265    26.861     7.697
    51   1 H        0.862     0.223     0.994     1.562
    52   1 H        0.926     0.082     1.963     2.191
    53   1 H        0.860     0.174     1.250     1.751
    54   1 H        0.911     0.096     1.822     2.112
    55   1 H        0.926     0.079     1.993     2.208
    56   1 H        0.861     0.169     1.276     1.770
    57   1 H        0.922     0.054     2.272     2.357
    58   1 H        0.925     0.088     1.903     2.157
    59   1 H        0.923     0.083     1.946     2.182
    60   1 H        0.923     0.047     2.358     2.402
    61   1 H        0.874     0.027     2.647     2.547
    62   1 H        0.914     0.048     2.345     2.395
    63   1 H        0.929     0.050     2.317     2.380
    64   1 H        0.858     0.164     1.308     1.792
    65   1 H        0.909     0.052     2.301     2.373
    66   1 H        0.924     0.046     2.373     2.409
    67   1 H        0.929     0.061     2.190     2.314
    68   1 H        0.922     0.040     2.450     2.448
    69   1 H        0.922     0.113     1.670     2.021
    70   1 H        0.860     0.202     1.093     1.638
    71   1 H        0.927     0.053     2.287     2.365
    72   1 H        0.927     0.034     2.533     2.489
    73   1 H        0.925     0.046     2.365     2.405
    74   1 H        0.926     0.042     2.416     2.431
    75   1 H        0.928     0.090     1.882     2.145
    76   1 H        0.858     0.199     1.113     1.653
    77   1 H        0.927     0.062     2.175     2.306
    78   1 H        0.923     0.077     2.015     2.220
    79   1 H        0.921     0.033     2.548     2.496
    80   1 H        0.923     0.059     2.208     2.324
    81   1 H        0.932     0.070     2.088     2.260
    82   1 H        0.921     0.084     1.936     2.176
    83   1 H        0.925     0.068     2.111     2.272
    84   1 H        0.861     0.189     1.162     1.689
    85   1 H        0.856     0.173     1.254     1.755
    86   1 H        0.927     0.076     2.023     2.224
    87   1 H        0.926     0.066     2.128     2.281
    88   1 H        0.917     0.069     2.101     2.267
    89   1 H        0.929     0.056     2.243     2.342
    90   1 H        0.910     0.042     2.431     2.439
    91   1 H        0.924     0.053     2.283     2.363
    92   1 H        0.873     0.025     2.679     2.563
    93   1 H        0.926     0.055     2.264     2.353
    94   1 H        0.924     0.100     1.787     2.091
    95   1 H        0.852     0.204     1.087     1.634
    96   1 H        0.860     0.176     1.234     1.740

 Mol. C6AA /au·bohr⁶  :     100320.344627
 Mol. C8AA /au·bohr⁸  :    2413721.551667
 Mol. α(0) /au        :        478.992508


Wiberg/Mayer (AO) data.
largest (>0.10) Wiberg bond orders for each atom

 ---------------------------------------------------------------------------
     #   Z sym  total        # sym  WBO       # sym  WBO       # sym  WBO
 ---------------------------------------------------------------------------
     1   7 N    3.448 --     7 C    1.300     2 C    0.954    51 H    0.883
                             9 O    0.203
     2   6 C    3.966 --    43 C    0.971    52 H    0.958     1 N    0.954
                             3 C    0.954
     3   6 C    3.948 --     4 O    1.741     5 N    1.176     2 C    0.954
     4   8 O    2.065 --     3 C    1.741     5 N    0.192
     5   7 N    3.389 --     3 C    1.176     6 C    0.999    53 H    0.930
                             4 O    0.192
     6   6 C    3.960 --     5 N    0.999    47 C    0.961    54 H    0.938
                            37 C    0.922
     7   6 C    3.958 --     9 O    1.647     1 N    1.300     8 C    0.948
     8   6 C    3.965 --    10 N    0.995    11 C    0.952    55 H    0.949
                             7 C    0.948
     9   8 O    1.955 --     7 C    1.647     1 N    0.203
    10   7 N    3.397 --    12 C    1.205     8 C    0.995    56 H    0.928
                            15 O    0.180
    11   6 C    3.990 --    13 C    1.033    58 H    0.962    57 H    0.956
                             8 C    0.952
    12   6 C    3.948 --    15 O    1.726    10 N    1.205    14 C    0.940
    13   6 C    3.974 --    17 C    1.537    16 N    1.260    11 C    1.033
    14   6 C    3.965 --    19 C    0.992    59 H    0.951    18 N    0.942
                            12 C    0.940
    15   8 O    2.028 --    12 C    1.726    10 N    0.180
    16   7 N    3.047 --    20 C    1.531    13 C    1.260    21 N    0.106
    17   6 C    3.945 --    13 C    1.537    21 N    1.247    60 H    0.965
                            20 C    0.126
    18   7 N    3.454 --    23 C    1.262    22 C    0.967    14 C    0.942
                            26 O    0.178
    19   6 C    3.985 --    24 C    1.007    14 C    0.992    61 H    0.965
                            62 H    0.959
    20   6 C    3.941 --    16 N    1.531    21 N    1.230    63 H    0.969
                            17 C    0.126
    21   7 N    3.594 --    17 C    1.247    20 C    1.230    64 H    0.942
                            16 N    0.106
    22   6 C    3.968 --    24 C    1.010    18 N    0.967    66 H    0.962
                            65 H    0.958
    23   6 C    3.951 --    26 O    1.663    18 N    1.262    25 C    0.931
    24   6 C    3.993 --    22 C    1.010    19 C    1.007    67 H    0.970
                            68 H    0.968
    25   6 C    3.963 --    27 N    0.993    28 C    0.984    69 H    0.934
                            23 C    0.931
    26   8 O    1.985 --    23 C    1.663    18 N    0.178
    27   7 N    3.389 --    29 C    1.181    25 C    0.993    70 H    0.907
                            32 O    0.205
    28   6 C    3.992 --    30 C    0.999    25 C    0.984    71 H    0.971
                            72 H    0.963
    29   6 C    3.955 --    32 O    1.742    27 N    1.181    31 C    0.953
    30   6 C    3.979 --    28 C    0.999    33 S    0.998    74 H    0.971
                            73 H    0.968
    31   6 C    3.962 --    34 N    0.992    75 H    0.957    29 C    0.953
                            35 C    0.952
    32   8 O    2.068 --    29 C    1.742    27 N    0.205
    33  16 S    2.117 --    36 C    1.015    30 C    0.998
    34   7 N    3.477 --    37 C    1.285    31 C    0.992    76 H    0.927
                            39 O    0.199
    35   6 C    3.981 --    77 H    0.975    38 C    0.975    78 H    0.970
                            31 C    0.952
    36   6 C    3.977 --    33 S    1.015    81 H    0.986    79 H    0.979
                            80 H    0.978
    37   6 C    3.947 --    39 O    1.632    34 N    1.285     6 C    0.922
    38   6 C    3.990 --    40 C    0.995    35 C    0.975    83 H    0.971
                            82 H    0.949
    39   8 O    1.986 --    37 C    1.632    34 N    0.199
    40   6 C    3.949 --    41 O    1.689    42 N    1.232    38 C    0.995
    41   8 O    1.992 --    40 C    1.689    42 N    0.191
    42   7 N    3.350 --    40 C    1.232    84 H    0.944    85 H    0.944
                            41 O    0.191
    43   6 C    3.986 --    44 C    1.006     2 C    0.971    86 H    0.969
                            87 H    0.969
    44   6 C    3.977 --    43 C    1.006    45 S    0.997    89 H    0.979
                            88 H    0.959
    45  16 S    2.113 --    46 C    1.010    44 C    0.997
    46   6 C    3.970 --    45 S    1.010    91 H    0.985    90 H    0.981
                            92 H    0.975
    47   6 C    3.990 --    48 C    0.990    93 H    0.968     6 C    0.961
                            94 H    0.948
    48   6 C    3.952 --    49 O    1.686    50 N    1.247    47 C    0.990
    49   8 O    1.997 --    48 C    1.686    50 N    0.196
    50   7 N    3.362 --    48 C    1.247    96 H    0.945    95 H    0.930
                            49 O    0.196
    51   1 H    0.950 --     1 N    0.883
    52   1 H    0.993 --     2 C    0.958
    53   1 H    0.970 --     5 N    0.930
    54   1 H    0.990 --     6 C    0.938
    55   1 H    0.993 --     8 C    0.949
    56   1 H    0.971 --    10 N    0.928
    57   1 H    0.997 --    11 C    0.956
    58   1 H    0.992 --    11 C    0.962
    59   1 H    0.993 --    14 C    0.951
    60   1 H    0.998 --    17 C    0.965
    61   1 H    0.998 --    19 C    0.965
    62   1 H    0.998 --    19 C    0.959
    63   1 H    0.997 --    20 C    0.969
    64   1 H    0.972 --    21 N    0.942
    65   1 H    0.997 --    22 C    0.958
    66   1 H    0.998 --    22 C    0.962
    67   1 H    0.996 --    24 C    0.970
    68   1 H    0.996 --    24 C    0.968
    69   1 H    0.987 --    25 C    0.934
    70   1 H    0.959 --    27 N    0.907
    71   1 H    0.997 --    28 C    0.971
    72   1 H    0.999 --    28 C    0.963
    73   1 H    0.998 --    30 C    0.968
    74   1 H    0.998 --    30 C    0.971
    75   1 H    0.991 --    31 C    0.957
    76   1 H    0.960 --    34 N    0.927
    77   1 H    0.996 --    35 C    0.975
    78   1 H    0.994 --    35 C    0.970
    79   1 H    0.999 --    36 C    0.979
    80   1 H    0.996 --    36 C    0.978
    81   1 H    0.995 --    36 C    0.986
    82   1 H    0.993 --    38 C    0.949
    83   1 H    0.995 --    38 C    0.971
    84   1 H    0.964 --    42 N    0.944
    85   1 H    0.970 --    42 N    0.944
    86   1 H    0.994 --    43 C    0.969
    87   1 H    0.996 --    43 C    0.969
    88   1 H    0.995 --    44 C    0.959
    89   1 H    0.997 --    44 C    0.979
    90   1 H    0.998 --    46 C    0.981
    91   1 H    0.997 --    46 C    0.985
    92   1 H    0.999 --    46 C    0.975
    93   1 H    0.997 --    47 C    0.968
    94   1 H    0.990 --    47 C    0.948
    95   1 H    0.958 --    50 N    0.930
    96   1 H    0.969 --    50 N    0.945
 ---------------------------------------------------------------------------

Topologies differ in total number of bonds
Writing topology from bond orders to xtbtopo.mol

molecular dipole:
                 x           y           z       tot (Debye)
 q only:        2.335      -3.425      -3.223
   full:        2.434      -4.696      -3.763      16.500
molecular quadrupole (traceless):
                xx          xy          yy          xz          yz          zz
 q only:       58.096     -24.772     -44.792      20.013      26.835     -13.304
  q+dip:       62.208     -25.956     -45.438      35.732      33.337     -16.770
   full:       63.738     -26.493     -47.297      35.262      33.420     -16.441


           -------------------------------------------------
          | TOTAL ENERGY             -155.901491974264 Eh   |
          | GRADIENT NORM               0.419751287013 Eh/α |
          | HOMO-LUMO GAP               2.806960578077 eV   |
           -------------------------------------------------

------------------------------------------------------------------------
 * finished run on 2026/05/23 at 08:19:48.787     
------------------------------------------------------------------------
 total:
 * wall-time:     0 d,  0 h,  0 min,  9.887 sec
 *  cpu-time:     0 d,  0 h,  0 min, 27.849 sec
 * ratio c/w:     2.817 speedup
 SCF:
 * wall-time:     0 d,  0 h,  0 min,  9.276 sec
 *  cpu-time:     0 d,  0 h,  0 min, 26.475 sec
 * ratio c/w:     2.854 speedup

normal termination of xtb
