      -----------------------------------------------------------      
     |                   =====================                   |     
     |                           x T B                           |     
     |                   =====================                   |     
     |                         S. Grimme                         |     
     |          Mulliken Center for Theoretical Chemistry        |     
     |                    University of Bonn                     |     
      -----------------------------------------------------------      

   * xtb version 6.7.1 (edcfbbe) compiled by 'albert@albert-system' on 2024-07-22

   xtb is free software: you can redistribute it and/or modify it under
   the terms of the GNU Lesser General Public License as published by
   the Free Software Foundation, either version 3 of the License, or
   (at your option) any later version.
   
   xtb is distributed in the hope that it will be useful,
   but WITHOUT ANY WARRANTY; without even the implied warranty of
   MERCHANTABILITY or FITNESS FOR A PARTICULAR PURPOSE.  See the
   GNU Lesser General Public License for more details.
   
   Cite this work as:
   * C. Bannwarth, E. Caldeweyher, S. Ehlert, A. Hansen, P. Pracht,
     J. Seibert, S. Spicher, S. Grimme, WIREs Comput. Mol. Sci., 2020, 11,
     e01493. DOI: 10.1002/wcms.1493
   
   for GFN2-xTB:
   * C. Bannwarth, S. Ehlert and S. Grimme., J. Chem. Theory Comput., 2019,
     15, 1652-1671. DOI: 10.1021/acs.jctc.8b01176
   for GFN1-xTB:
   * S. Grimme, C. Bannwarth, P. Shushkov, J. Chem. Theory Comput., 2017,
     13, 1989-2009. DOI: 10.1021/acs.jctc.7b00118
   for GFN0-xTB:
   * P. Pracht, E. Caldeweyher, S. Ehlert, S. Grimme, ChemRxiv, 2019, preprint.
     DOI: 10.26434/chemrxiv.8326202.v1
   for GFN-FF:
   * S. Spicher and S. Grimme, Angew. Chem. Int. Ed., 2020, 59, 15665-15673.
     DOI: 10.1002/anie.202004239
   
   for ALPB and GBSA implicit solvation:
   * S. Ehlert, M. Stahn, S. Spicher, S. Grimme, J. Chem. Theory Comput.,
     2021, 17, 4250-4261. DOI: 10.1021/acs.jctc.1c00471
   
   for ddCOSMO and CPCM-X implicit solvation:
   * M. Stahn, S. Ehlert, S. Grimme, J. Phys. Chem. A,
     2023, XX, XXXX-XXXX. DOI: 10.1021/acs.jpca.3c04382
   
   for DFT-D4:
   * E. Caldeweyher, C. Bannwarth and S. Grimme, J. Chem. Phys., 2017,
     147, 034112. DOI: 10.1063/1.4993215
   * E. Caldeweyher, S. Ehlert, A. Hansen, H. Neugebauer, S. Spicher,
     C. Bannwarth and S. Grimme, J. Chem. Phys., 2019, 150, 154122.
     DOI: 10.1063/1.5090222
   * E. Caldeweyher, J.-M. Mewes, S. Ehlert and S. Grimme, Phys. Chem. Chem. Phys.
     2020, 22, 8499-8512. DOI: 10.1039/D0CP00502A
   
   for sTDA-xTB:
   * S. Grimme and C. Bannwarth, J. Chem. Phys., 2016, 145, 054103.
     DOI: 10.1063/1.4959605
   
   in the mass-spec context:
   * V. Asgeirsson, C. Bauer and S. Grimme, Chem. Sci., 2017, 8, 4879.
     DOI: 10.1039/c7sc00601b
   * J. Koopman and S. Grimme, ACS Omega 2019, 4, 12, 15120-15133.
     DOI: 10.1021/acsomega.9b02011
   
   for metadynamics refer to:
   * S. Grimme, J. Chem. Theory Comput., 2019, 155, 2847-2862
     DOI: 10.1021/acs.jctc.9b00143
   
   for SPH calculations refer to:
   * S. Spicher and S. Grimme, J. Chem. Theory Comput., 2021, 17, 1701-1714
     DOI: 10.1021/acs.jctc.0c01306
   
   for ONIOM refer to:
   * C. Plett, A. Katbashev, S. Ehlert, S. Grimme, M. Bursch,
     Phys. Chem. Chem. Phys., 2023, 25, 17860-17868. DOI: 10.1039/D3CP02178E
   
   for DIPRO refer to:
   * J. Kohn, N. Gildemeister, S. Grimme, D. Fazzi, A. Hansen,
     J. Chem. Phys., 2023, just accepted.
   
   for PTB refer to:
   * S. Grimme, M. Mueller, A. Hansen, J. Chem. Phys., 2023, 158, 124111.
     DOI: 10.1063/5.0137838
   
   with help from (in alphabetical order)
   P. Atkinson, C. Bannwarth, F. Bohle, G. Brandenburg, E. Caldeweyher
   M. Checinski, S. Dohm, S. Ehlert, S. Ehrlich, I. Gerasimov, C. Hölzer
   A. Katbashev, J. Kohn, J. Koopman, C. Lavigne, S. Lehtola, F. März, M. Müller,
   F. Musil, H. Neugebauer, J. Pisarek, C. Plett, P. Pracht, F. Pultar,
   J. Seibert, P. Shushkov, S. Spicher, M. Stahn, M. Steiner, T. Strunk,
   J. Stückrath, T. Rose, and J. Unsleber
   
 * started run on 2026/05/23 at 12:53:52.827     
   ID    Z sym.   atoms
    1    7 N      1, 5, 10, 18, 29, 37, 45, 48
    2    6 C      2, 3, 6-8, 11-14, 16, 17, 19-25, 27, 28, 30-33, 35, 36,
                  38-43, 46, 47, 49-56
    3    8 O      4, 9, 15, 26, 34, 44
    4    1 H      57-114

           -------------------------------------------------
          |                Calculation Setup                |
           -------------------------------------------------

          program call               : /home/xchen/software/xtb-6.7.1/xtb-dist/bin/xtb /home/xchen/Test/benchmark/md_sampled/10_6_0573_0/snap_0157.xyz --charge 0 --gfn 2 --norestart
          coordinate file            : /home/xchen/Test/benchmark/md_sampled/10_6_0573_0/snap_0157.xyz
          omp threads                :                    48


           -------------------------------------------------
          |                 G F N 2 - x T B                 |
           -------------------------------------------------

        Reference                      10.1021/acs.jctc.8b01176
      * Hamiltonian:
        H0-scaling (s, p, d)           1.850000    2.230000    2.230000
        zeta-weighting                 0.500000
      * Dispersion:
        s8                             2.700000
        a1                             0.520000
        a2                             5.000000
        s9                             5.000000
      * Repulsion:
        kExp                           1.500000    1.000000
        rExp                           1.000000
      * Coulomb:
        alpha                          2.000000
        third order                    shell-resolved
        anisotropic                    true
        a3                             3.000000
        a5                             4.000000
        cn-shift                       1.200000
        cn-exp                         4.000000
        max-rad                        5.000000


          ...................................................
          :                      SETUP                      :
          :.................................................:
          :  # basis functions                 282          :
          :  # atomic orbitals                 282          :
          :  # shells                          170          :
          :  # electrons                       302          :
          :  max. iterations                   250          :
          :  Hamiltonian                  GFN2-xTB          :
          :  restarted?                      false          :
          :  GBSA solvation                  false          :
          :  PC potential                    false          :
          :  electronic temp.          300.0000000     K    :
          :  accuracy                    1.0000000          :
          :  -> integral cutoff          0.2500000E+02      :
          :  -> integral neglect         0.1000000E-07      :
          :  -> SCF convergence          0.1000000E-05 Eh   :
          :  -> wf. convergence          0.1000000E-03 e    :
          :  Broyden damping             0.4000000          :
          :  net charge                          0          :
          :  unpaired electrons                  0          :
          ...................................................

 iter      E             dE          RMSdq      gap      omega  full diag
   1   -168.9165804 -0.168917E+03  0.384E+00    3.39       0.0  T
   2   -169.3417857 -0.425205E+00  0.220E+00    2.39       1.0  T
   3   -169.3713113 -0.295256E-01  0.121E+00    3.04       1.0  T
   4   -169.3743483 -0.303701E-02  0.344E-01    2.61       1.0  T
   5   -169.3866538 -0.123055E-01  0.111E-01    2.72       1.0  T
   6   -169.3871720 -0.518186E-03  0.578E-02    2.75       1.0  T
   7   -169.3872905 -0.118505E-03  0.249E-02    2.74       1.0  T
   8   -169.3872959 -0.544305E-05  0.865E-03    2.74       1.1  T
   9   -169.3872993 -0.333752E-05  0.398E-03    2.74       2.4  T
  10   -169.3872999 -0.588290E-06  0.157E-03    2.74       6.0  T
  11   -169.3872999 -0.555647E-07  0.725E-04    2.74      12.9  T
  12   -169.3872999 -0.181088E-07  0.263E-04    2.74      35.6  T

   *** convergence criteria satisfied after 12 iterations ***

         #    Occupation            Energy/Eh            Energy/eV
      -------------------------------------------------------------
         1        2.0000           -0.7426537             -20.2086
       ...           ...                  ...                  ...
       145        2.0000           -0.3982262             -10.8363
       146        2.0000           -0.3926586             -10.6848
       147        2.0000           -0.3857255             -10.4961
       148        2.0000           -0.3843694             -10.4592
       149        2.0000           -0.3781755             -10.2907
       150        2.0000           -0.3773215             -10.2674
       151        2.0000           -0.3698286             -10.0635 (HOMO)
       152                         -0.2691312              -7.3234 (LUMO)
       153                         -0.2567233              -6.9858
       154                         -0.2464074              -6.7051
       155                         -0.2445188              -6.6537
       156                         -0.2417552              -6.5785
       ...                                ...                  ...
       282                          0.6828533              18.5814
      -------------------------------------------------------------
                  HL-Gap            0.1006973 Eh            2.7401 eV
             Fermi-level           -0.3194799 Eh           -8.6935 eV

 SCC (total)                   0 d,  0 h,  0 min, 12.070 sec
 SCC setup                      ...        0 min,  0.035 sec (  0.289%)
 Dispersion                     ...        0 min,  0.150 sec (  1.244%)
 classical contributions        ...        0 min,  0.013 sec (  0.107%)
 integral evaluation            ...        0 min,  0.317 sec (  2.623%)
 iterations                     ...        0 min, 10.932 sec ( 90.579%)
 molecular gradient             ...        0 min,  0.608 sec (  5.036%)
 printout                       ...        0 min,  0.015 sec (  0.121%)

         :::::::::::::::::::::::::::::::::::::::::::::::::::::
         ::                     SUMMARY                     ::
         :::::::::::::::::::::::::::::::::::::::::::::::::::::
         :: total energy            -167.175531442095 Eh    ::
         :: gradient norm              0.403577602665 Eh/a0 ::
         :: HOMO-LUMO gap              2.740113999452 eV    ::
         ::.................................................::
         :: SCC energy              -169.379918829299 Eh    ::
         :: -> isotropic ES            0.247859402188 Eh    ::
         :: -> anisotropic ES          0.021869302330 Eh    ::
         :: -> anisotropic XC          0.078290727019 Eh    ::
         :: -> dispersion             -0.140279964376 Eh    ::
         :: repulsion energy           2.204387387204 Eh    ::
         :: add. restraining           0.000000000000 Eh    ::
         :: total charge              -0.000000000000 e     ::
         :::::::::::::::::::::::::::::::::::::::::::::::::::::

           -------------------------------------------------
          |                Property Printout                |
           -------------------------------------------------

    * Orbital Energies and Occupations

         #    Occupation            Energy/Eh            Energy/eV
      -------------------------------------------------------------
         1        2.0000           -0.7426537             -20.2086
       ...           ...                  ...                  ...
       139        2.0000           -0.4192171             -11.4075
       140        2.0000           -0.4166108             -11.3366
       141        2.0000           -0.4151562             -11.2970
       142        2.0000           -0.4137147             -11.2577
       143        2.0000           -0.4070313             -11.0759
       144        2.0000           -0.3989162             -10.8551
       145        2.0000           -0.3982262             -10.8363
       146        2.0000           -0.3926586             -10.6848
       147        2.0000           -0.3857255             -10.4961
       148        2.0000           -0.3843694             -10.4592
       149        2.0000           -0.3781755             -10.2907
       150        2.0000           -0.3773215             -10.2674
       151        2.0000           -0.3698286             -10.0635 (HOMO)
       152                         -0.2691312              -7.3234 (LUMO)
       153                         -0.2567233              -6.9858
       154                         -0.2464074              -6.7051
       155                         -0.2445188              -6.6537
       156                         -0.2417552              -6.5785
       157                         -0.2367228              -6.4416
       158                         -0.2251699              -6.1272
       159                         -0.2181778              -5.9369
       160                         -0.2146648              -5.8413
       161                         -0.2127151              -5.7883
       162                         -0.1969983              -5.3606
       ...                                ...                  ...
       282                          0.6828533              18.5814
      -------------------------------------------------------------
                  HL-Gap            0.1006973 Eh            2.7401 eV
             Fermi-level           -0.3194799 Eh           -8.6935 eV

     #   Z          covCN         q      C6AA      α(0)
     1   7 N        2.684    -0.233    26.113     7.590
     2   6 C        3.783     0.015    20.347     6.425
     3   6 C        2.756     0.258    22.661     7.795
     4   8 O        0.858    -0.459    22.889     6.414
     5   7 N        2.688    -0.139    24.007     7.277
     6   6 C        3.760     0.013    20.402     6.439
     7   6 C        2.752     0.263    22.564     7.778
     8   6 C        3.808     0.027    20.110     6.384
     9   8 O        0.859    -0.404    21.770     6.256
    10   7 N        2.707    -0.167    24.620     7.369
    11   6 C        3.801    -0.061    21.673     6.628
    12   6 C        2.758     0.254    22.735     7.808
    13   6 C        2.976     0.010    27.782     8.646
    14   6 C        3.791     0.023    20.190     6.399
    15   8 O        0.858    -0.447    22.637     6.379
    16   6 C        2.925    -0.044    29.090     8.845
    17   6 C        2.903    -0.033    28.820     8.802
    18   7 N        2.695    -0.193    25.198     7.455
    19   6 C        3.817    -0.057    21.590     6.613
    20   6 C        2.915    -0.024    28.602     8.770
    21   6 C        2.912    -0.027    28.687     8.783
    22   6 C        2.763     0.264    22.541     7.775
    23   6 C        3.838    -0.017    20.845     6.495
    24   6 C        2.909    -0.025    28.631     8.774
    25   6 C        3.810     0.014    20.332     6.418
    26   8 O        0.859    -0.411    21.911     6.276
    27   6 C        3.740    -0.112    22.717     6.800
    28   6 C        3.708    -0.108    22.712     6.812
    29   7 N        2.690    -0.181    24.930     7.416
    30   6 C        3.809    -0.078    21.989     6.675
    31   6 C        2.760     0.283    22.208     7.717
    32   6 C        2.961     0.003    27.951     8.672
    33   6 C        3.776     0.023    20.208     6.405
    34   8 O        0.864    -0.403    21.731     6.250
    35   6 C        2.899    -0.045    29.106     8.846
    36   6 C        2.924    -0.035    28.877     8.812
    37   7 N        2.682    -0.203    25.406     7.486
    38   6 C        3.818    -0.080    22.011     6.677
    39   6 C        2.910    -0.037    28.931     8.820
    40   6 C        2.903    -0.027    28.672     8.780
    41   6 C        2.715     0.261    22.595     7.781
    42   6 C        3.182     0.051    26.439     8.393
    43   6 C        2.914    -0.035    28.867     8.810
    44   8 O        0.860    -0.396    21.601     6.231
    45   7 N        1.858    -0.255    27.499     7.772
    46   6 C        2.957    -0.027    28.667     8.782
    47   6 C        3.099     0.107    25.531     8.280
    48   7 N        2.766    -0.132    23.869     7.256
    49   6 C        3.842    -0.023    20.946     6.510
    50   6 C        3.745    -0.115    22.764     6.806
    51   6 C        3.785    -0.059    21.652     6.628
    52   6 C        3.748    -0.111    22.698     6.795
    53   6 C        3.840    -0.030    21.085     6.532
    54   6 C        3.735    -0.113    22.756     6.808
    55   6 C        3.790    -0.055    21.582     6.616
    56   6 C        3.746    -0.107    22.625     6.785
    57   1 H        0.861     0.176     1.240     1.744
    58   1 H        0.926     0.068     2.104     2.268
    59   1 H        0.859     0.188     1.171     1.695
    60   1 H        0.927     0.085     1.930     2.173
    61   1 H        0.923     0.100     1.782     2.087
    62   1 H        0.859     0.181     1.210     1.723
    63   1 H        0.914     0.027     2.638     2.540
    64   1 H        0.919     0.040     2.444     2.445
    65   1 H        0.918     0.100     1.785     2.090
    66   1 H        0.928     0.038     2.472     2.459
    67   1 H        0.927     0.051     2.305     2.374
    68   1 H        0.856     0.172     1.259     1.758
    69   1 H        0.920     0.030     2.587     2.516
    70   1 H        0.928     0.069     2.093     2.262
    71   1 H        0.922     0.028     2.610     2.526
    72   1 H        0.918     0.038     2.483     2.464
    73   1 H        0.926     0.037     2.486     2.466
    74   1 H        0.918     0.031     2.571     2.508
    75   1 H        0.922     0.105     1.737     2.061
    76   1 H        0.925     0.059     2.207     2.323
    77   1 H        0.920     0.043     2.412     2.429
    78   1 H        0.922     0.039     2.468     2.457
    79   1 H        0.910     0.027     2.635     2.539
    80   1 H        0.924     0.034     2.525     2.485
    81   1 H        0.913     0.025     2.666     2.554
    82   1 H        0.858     0.161     1.331     1.808
    83   1 H        0.923     0.055     2.257     2.350
    84   1 H        0.924     0.037     2.487     2.466
    85   1 H        0.917     0.085     1.933     2.175
    86   1 H        0.925     0.028     2.618     2.530
    87   1 H        0.927     0.039     2.464     2.455
    88   1 H        0.857     0.182     1.203     1.718
    89   1 H        0.929     0.105     1.738     2.061
    90   1 H        0.928     0.044     2.392     2.418
    91   1 H        0.926     0.036     2.508     2.476
    92   1 H        0.928     0.048     2.341     2.393
    93   1 H        0.926     0.042     2.427     2.436
    94   1 H        0.927     0.064     2.151     2.293
    95   1 H        0.918     0.024     2.673     2.557
    96   1 H        0.860     0.161     1.331     1.807
    97   1 H        0.926     0.037     2.487     2.466
    98   1 H        0.928     0.047     2.352     2.398
    99   1 H        0.919     0.051     2.304     2.374
   100   1 H        0.921     0.027     2.625     2.534
   101   1 H        0.923     0.061     2.185     2.312
   102   1 H        0.903     0.037     2.488     2.468
   103   1 H        0.920     0.029     2.597     2.520
   104   1 H        0.930     0.062     2.179     2.308
   105   1 H        0.919     0.036     2.508     2.477
   106   1 H        0.927     0.063     2.166     2.301
   107   1 H        0.924     0.032     2.552     2.498
   108   1 H        0.927     0.045     2.382     2.414
   109   1 H        0.915     0.019     2.753     2.595
   110   1 H        0.909     0.040     2.456     2.452
   111   1 H        0.922     0.023     2.689     2.565
   112   1 H        0.927     0.048     2.348     2.396
   113   1 H        0.915     0.037     2.491     2.469
   114   1 H        0.927     0.044     2.394     2.419

 Mol. C6AA /au·bohr⁶  :     129188.886171
 Mol. C8AA /au·bohr⁸  :    2949353.664123
 Mol. α(0) /au        :        548.408383


Wiberg/Mayer (AO) data.
largest (>0.10) Wiberg bond orders for each atom

 ---------------------------------------------------------------------------
     #   Z sym  total        # sym  WBO       # sym  WBO       # sym  WBO
 ---------------------------------------------------------------------------
     1   7 N    3.336 --     7 C    1.154     2 C    0.979    57 H    0.934
                             9 O    0.170
     2   6 C    3.955 --     1 N    0.979    58 H    0.951     3 C    0.944
                            49 C    0.943
     3   6 C    3.959 --     4 O    1.637     5 N    1.300     2 C    0.944
     4   8 O    1.956 --     3 C    1.637     5 N    0.195
     5   7 N    3.501 --     3 C    1.300     6 C    1.017    59 H    0.908
                             4 O    0.195
     6   6 C    3.960 --     5 N    1.017    53 C    0.968    60 H    0.953
                            41 C    0.859
     7   6 C    3.937 --     9 O    1.744     1 N    1.154     8 C    0.938
     8   6 C    3.963 --    10 N    0.995    11 C    0.991     7 C    0.938
                            61 H    0.911
     9   8 O    2.052 --     7 C    1.744     1 N    0.170
    10   7 N    3.444 --    12 C    1.266     8 C    0.995    62 H    0.912
                            15 O    0.184
    11   6 C    3.986 --     8 C    0.991    13 C    0.977    63 H    0.968
                            64 H    0.961
    12   6 C    3.944 --    15 O    1.667    10 N    1.266    14 C    0.923
    13   6 C    3.983 --    16 C    1.445    17 C    1.399    11 C    0.977
                            24 C    0.111
    14   6 C    3.960 --    19 C    0.991    18 N    0.988    65 H    0.926
                            12 C    0.923
    15   8 O    1.992 --    12 C    1.667    10 N    0.184
    16   6 C    3.991 --    13 C    1.445    20 C    1.400    66 H    0.968
                            21 C    0.126
    17   6 C    3.989 --    21 C    1.480    13 C    1.399    67 H    0.968
    18   7 N    3.427 --    22 C    1.238    14 C    0.988    68 H    0.902
                            26 O    0.193
    19   6 C    3.985 --    23 C    1.007    14 C    0.991    70 H    0.964
                            69 H    0.962
    20   6 C    3.992 --    24 C    1.505    16 C    1.400    71 H    0.965
    21   6 C    3.985 --    17 C    1.480    24 C    1.372    72 H    0.971
                            16 C    0.126
    22   6 C    3.957 --    26 O    1.699    18 N    1.238    25 C    0.939
    23   6 C    3.988 --    19 C    1.007    27 C    1.005    28 C    0.982
                            73 H    0.971
    24   6 C    3.988 --    20 C    1.505    21 C    1.372    74 H    0.968
                            13 C    0.111
    25   6 C    3.959 --    30 C    0.994    29 N    0.961    22 C    0.939
                            75 H    0.925
    26   8 O    2.019 --    22 C    1.699    18 N    0.193
    27   6 C    3.990 --    23 C    1.005    78 H    0.988    77 H    0.984
                            76 H    0.981
    28   6 C    3.990 --    81 H    0.991    79 H    0.991    80 H    0.988
                            23 C    0.982
    29   7 N    3.404 --    31 C    1.220    25 C    0.961    82 H    0.936
                            34 O    0.180
    30   6 C    3.993 --    32 C    0.997    25 C    0.994    83 H    0.954
                            84 H    0.946
    31   6 C    3.947 --    34 O    1.712    29 N    1.220    33 C    0.954
    32   6 C    3.985 --    35 C    1.500    36 C    1.326    30 C    0.997
                            43 C    0.111
    33   6 C    3.957 --    37 N    0.966    38 C    0.958    31 C    0.954
                            85 H    0.951
    34   8 O    2.044 --    31 C    1.712    29 N    0.180
    35   6 C    3.986 --    32 C    1.500    39 C    1.352    86 H    0.967
                            40 C    0.107
    36   6 C    3.992 --    40 C    1.545    32 C    1.326    87 H    0.967
                            39 C    0.107
    37   7 N    3.393 --    41 C    1.238    33 C    0.966    88 H    0.918
                            44 O    0.187
    38   6 C    3.981 --    42 C    1.010    90 H    0.962    33 C    0.958
                            89 H    0.947
    39   6 C    3.987 --    43 C    1.525    35 C    1.352    91 H    0.974
                            36 C    0.107
    40   6 C    3.990 --    36 C    1.545    43 C    1.340    92 H    0.972
                            35 C    0.107
    41   6 C    3.935 --    44 O    1.742    37 N    1.238     6 C    0.859
    42   6 C    3.970 --    46 C    1.634    45 N    1.183    38 C    1.010
    43   6 C    3.987 --    39 C    1.525    40 C    1.340    93 H    0.973
                            32 C    0.111
    44   8 O    2.068 --    41 C    1.742    37 N    0.187
    45   7 N    3.028 --    47 C    1.634    42 C    1.183    48 N    0.125
    46   6 C    3.941 --    42 C    1.634    48 N    1.167    94 H    0.964
    47   6 C    3.955 --    45 N    1.634    48 N    1.220    95 H    0.957
    48   7 N    3.541 --    47 C    1.220    46 C    1.167    96 H    0.947
                            45 N    0.125
    49   6 C    3.987 --    51 C    1.009    50 C    1.008    97 H    0.964
                             2 C    0.943
    50   6 C    3.993 --    49 C    1.008   100 H    0.986    98 H    0.985
                            99 H    0.978
    51   6 C    3.988 --    52 C    1.013    49 C    1.009   101 H    0.971
                           102 H    0.966
    52   6 C    3.990 --    51 C    1.013   103 H    0.985   104 H    0.983
                           105 H    0.982
    53   6 C    3.987 --    55 C    1.002    54 C    0.985   106 H    0.970
                             6 C    0.968
    54   6 C    3.988 --   107 H    0.987   108 H    0.987    53 C    0.985
                           109 H    0.984
    55   6 C    3.992 --    56 C    1.017    53 C    1.002   111 H    0.976
                           110 H    0.967
    56   6 C    3.994 --    55 C    1.017   114 H    0.987   113 H    0.983
                           112 H    0.983
    57   1 H    0.969 --     1 N    0.934
    58   1 H    0.995 --     2 C    0.951
    59   1 H    0.965 --     5 N    0.908
    60   1 H    0.992 --     6 C    0.953
    61   1 H    0.990 --     8 C    0.911
    62   1 H    0.967 --    10 N    0.912
    63   1 H    0.999 --    11 C    0.968
    64   1 H    0.997 --    11 C    0.961
    65   1 H    0.990 --    14 C    0.926
    66   1 H    0.998 --    16 C    0.968
    67   1 H    0.997 --    17 C    0.968
    68   1 H    0.970 --    18 N    0.902
    69   1 H    0.999 --    19 C    0.962
    70   1 H    0.995 --    19 C    0.964
    71   1 H    0.999 --    20 C    0.965
    72   1 H    0.998 --    21 C    0.971
    73   1 H    0.999 --    23 C    0.971
    74   1 H    0.998 --    24 C    0.968
    75   1 H    0.988 --    25 C    0.925
    76   1 H    0.996 --    27 C    0.981
    77   1 H    0.998 --    27 C    0.984
    78   1 H    0.999 --    27 C    0.988
    79   1 H    0.999 --    28 C    0.991
    80   1 H    0.999 --    28 C    0.988
    81   1 H    0.999 --    28 C    0.991
    82   1 H    0.974 --    29 N    0.936
    83   1 H    0.996 --    30 C    0.954
    84   1 H    0.998 --    30 C    0.946
    85   1 H    0.992 --    33 C    0.951
    86   1 H    0.999 --    35 C    0.967
    87   1 H    0.998 --    36 C    0.967
    88   1 H    0.967 --    37 N    0.918
    89   1 H    0.989 --    38 C    0.947
    90   1 H    0.998 --    38 C    0.962
    91   1 H    0.999 --    39 C    0.974
    92   1 H    0.997 --    40 C    0.972
    93   1 H    0.998 --    43 C    0.973
    94   1 H    0.996 --    46 C    0.964
    95   1 H    0.999 --    47 C    0.957
    96   1 H    0.974 --    48 N    0.947
    97   1 H    0.998 --    49 C    0.964
    98   1 H    0.998 --    50 C    0.985
    99   1 H    0.997 --    50 C    0.978
   100   1 H    0.999 --    50 C    0.986
   101   1 H    0.996 --    51 C    0.971
   102   1 H    0.999 --    51 C    0.966
   103   1 H    0.999 --    52 C    0.985
   104   1 H    0.996 --    52 C    0.983
   105   1 H    0.999 --    52 C    0.982
   106   1 H    0.996 --    53 C    0.970
   107   1 H    0.999 --    54 C    0.987
   108   1 H    0.997 --    54 C    0.987
   109   1 H    1.000 --    54 C    0.984
   110   1 H    0.998 --    55 C    0.967
   111   1 H    0.999 --    55 C    0.976
   112   1 H    0.998 --    56 C    0.983
   113   1 H    0.998 --    56 C    0.983
   114   1 H    0.998 --    56 C    0.987
 ---------------------------------------------------------------------------

Topologies differ in total number of bonds
Writing topology from bond orders to xtbtopo.mol

molecular dipole:
                 x           y           z       tot (Debye)
 q only:       -1.197       1.306      -4.483
   full:       -1.516       1.866      -4.676      13.363
molecular quadrupole (traceless):
                xx          xy          yy          xz          yz          zz
 q only:       32.340      27.999      -5.830       0.093       6.521     -26.511
  q+dip:       46.637      28.965     -15.928       4.561       5.240     -30.709
   full:       45.165      32.937     -15.409       3.381       4.036     -29.755


           -------------------------------------------------
          | TOTAL ENERGY             -167.175531442095 Eh   |
          | GRADIENT NORM               0.403577602665 Eh/α |
          | HOMO-LUMO GAP               2.740113999452 eV   |
           -------------------------------------------------

------------------------------------------------------------------------
 * finished run on 2026/05/23 at 12:54:05.599     
------------------------------------------------------------------------
 total:
 * wall-time:     0 d,  0 h,  0 min, 12.771 sec
 *  cpu-time:     0 d,  0 h,  0 min, 25.953 sec
 * ratio c/w:     2.032 speedup
 SCF:
 * wall-time:     0 d,  0 h,  0 min, 12.071 sec
 *  cpu-time:     0 d,  0 h,  0 min, 24.755 sec
 * ratio c/w:     2.051 speedup

normal termination of xtb
