      -----------------------------------------------------------      
     |                   =====================                   |     
     |                           x T B                           |     
     |                   =====================                   |     
     |                         S. Grimme                         |     
     |          Mulliken Center for Theoretical Chemistry        |     
     |                    University of Bonn                     |     
      -----------------------------------------------------------      

   * xtb version 6.7.1 (edcfbbe) compiled by 'albert@albert-system' on 2024-07-22

   xtb is free software: you can redistribute it and/or modify it under
   the terms of the GNU Lesser General Public License as published by
   the Free Software Foundation, either version 3 of the License, or
   (at your option) any later version.
   
   xtb is distributed in the hope that it will be useful,
   but WITHOUT ANY WARRANTY; without even the implied warranty of
   MERCHANTABILITY or FITNESS FOR A PARTICULAR PURPOSE.  See the
   GNU Lesser General Public License for more details.
   
   Cite this work as:
   * C. Bannwarth, E. Caldeweyher, S. Ehlert, A. Hansen, P. Pracht,
     J. Seibert, S. Spicher, S. Grimme, WIREs Comput. Mol. Sci., 2020, 11,
     e01493. DOI: 10.1002/wcms.1493
   
   for GFN2-xTB:
   * C. Bannwarth, S. Ehlert and S. Grimme., J. Chem. Theory Comput., 2019,
     15, 1652-1671. DOI: 10.1021/acs.jctc.8b01176
   for GFN1-xTB:
   * S. Grimme, C. Bannwarth, P. Shushkov, J. Chem. Theory Comput., 2017,
     13, 1989-2009. DOI: 10.1021/acs.jctc.7b00118
   for GFN0-xTB:
   * P. Pracht, E. Caldeweyher, S. Ehlert, S. Grimme, ChemRxiv, 2019, preprint.
     DOI: 10.26434/chemrxiv.8326202.v1
   for GFN-FF:
   * S. Spicher and S. Grimme, Angew. Chem. Int. Ed., 2020, 59, 15665-15673.
     DOI: 10.1002/anie.202004239
   
   for ALPB and GBSA implicit solvation:
   * S. Ehlert, M. Stahn, S. Spicher, S. Grimme, J. Chem. Theory Comput.,
     2021, 17, 4250-4261. DOI: 10.1021/acs.jctc.1c00471
   
   for ddCOSMO and CPCM-X implicit solvation:
   * M. Stahn, S. Ehlert, S. Grimme, J. Phys. Chem. A,
     2023, XX, XXXX-XXXX. DOI: 10.1021/acs.jpca.3c04382
   
   for DFT-D4:
   * E. Caldeweyher, C. Bannwarth and S. Grimme, J. Chem. Phys., 2017,
     147, 034112. DOI: 10.1063/1.4993215
   * E. Caldeweyher, S. Ehlert, A. Hansen, H. Neugebauer, S. Spicher,
     C. Bannwarth and S. Grimme, J. Chem. Phys., 2019, 150, 154122.
     DOI: 10.1063/1.5090222
   * E. Caldeweyher, J.-M. Mewes, S. Ehlert and S. Grimme, Phys. Chem. Chem. Phys.
     2020, 22, 8499-8512. DOI: 10.1039/D0CP00502A
   
   for sTDA-xTB:
   * S. Grimme and C. Bannwarth, J. Chem. Phys., 2016, 145, 054103.
     DOI: 10.1063/1.4959605
   
   in the mass-spec context:
   * V. Asgeirsson, C. Bauer and S. Grimme, Chem. Sci., 2017, 8, 4879.
     DOI: 10.1039/c7sc00601b
   * J. Koopman and S. Grimme, ACS Omega 2019, 4, 12, 15120-15133.
     DOI: 10.1021/acsomega.9b02011
   
   for metadynamics refer to:
   * S. Grimme, J. Chem. Theory Comput., 2019, 155, 2847-2862
     DOI: 10.1021/acs.jctc.9b00143
   
   for SPH calculations refer to:
   * S. Spicher and S. Grimme, J. Chem. Theory Comput., 2021, 17, 1701-1714
     DOI: 10.1021/acs.jctc.0c01306
   
   for ONIOM refer to:
   * C. Plett, A. Katbashev, S. Ehlert, S. Grimme, M. Bursch,
     Phys. Chem. Chem. Phys., 2023, 25, 17860-17868. DOI: 10.1039/D3CP02178E
   
   for DIPRO refer to:
   * J. Kohn, N. Gildemeister, S. Grimme, D. Fazzi, A. Hansen,
     J. Chem. Phys., 2023, just accepted.
   
   for PTB refer to:
   * S. Grimme, M. Mueller, A. Hansen, J. Chem. Phys., 2023, 158, 124111.
     DOI: 10.1063/5.0137838
   
   with help from (in alphabetical order)
   P. Atkinson, C. Bannwarth, F. Bohle, G. Brandenburg, E. Caldeweyher
   M. Checinski, S. Dohm, S. Ehlert, S. Ehrlich, I. Gerasimov, C. Hölzer
   A. Katbashev, J. Kohn, J. Koopman, C. Lavigne, S. Lehtola, F. März, M. Müller,
   F. Musil, H. Neugebauer, J. Pisarek, C. Plett, P. Pracht, F. Pultar,
   J. Seibert, P. Shushkov, S. Spicher, M. Stahn, M. Steiner, T. Strunk,
   J. Stückrath, T. Rose, and J. Unsleber
   
 * started run on 2026/05/23 at 08:14:09.189     
   ID    Z sym.   atoms
    1    7 N      1, 5, 10, 17, 23, 28, 35
    2    6 C      2, 3, 6-8, 11-14, 16, 20, 21, 24-26, 29, 31-34, 36-40
    3    8 O      4, 9, 15, 18, 19, 22, 27, 30
    4    1 H      41-70

           -------------------------------------------------
          |                Calculation Setup                |
           -------------------------------------------------

          program call               : /home/xchen/software/xtb-6.7.1/xtb-dist/bin/xtb /home/xchen/Test/benchmark/md_sampled/01_6_0109_n1/snap_0048.xyz --charge -1 --gfn 2 --norestart
          coordinate file            : /home/xchen/Test/benchmark/md_sampled/01_6_0109_n1/snap_0048.xyz
          omp threads                :                    48


           -------------------------------------------------
          |                 G F N 2 - x T B                 |
           -------------------------------------------------

        Reference                      10.1021/acs.jctc.8b01176
      * Hamiltonian:
        H0-scaling (s, p, d)           1.850000    2.230000    2.230000
        zeta-weighting                 0.500000
      * Dispersion:
        s8                             2.700000
        a1                             0.520000
        a2                             5.000000
        s9                             5.000000
      * Repulsion:
        kExp                           1.500000    1.000000
        rExp                           1.000000
      * Coulomb:
        alpha                          2.000000
        third order                    shell-resolved
        anisotropic                    true
        a3                             3.000000
        a5                             4.000000
        cn-shift                       1.200000
        cn-exp                         4.000000
        max-rad                        5.000000


          ...................................................
          :                      SETUP                      :
          :.................................................:
          :  # basis functions                 190          :
          :  # atomic orbitals                 190          :
          :  # shells                          110          :
          :  # electrons                       214          :
          :  max. iterations                   250          :
          :  Hamiltonian                  GFN2-xTB          :
          :  restarted?                      false          :
          :  GBSA solvation                  false          :
          :  PC potential                    false          :
          :  electronic temp.          300.0000000     K    :
          :  accuracy                    1.0000000          :
          :  -> integral cutoff          0.2500000E+02      :
          :  -> integral neglect         0.1000000E-07      :
          :  -> SCF convergence          0.1000000E-05 Eh   :
          :  -> wf. convergence          0.1000000E-03 e    :
          :  Broyden damping             0.4000000          :
          :  net charge                         -1          :
          :  unpaired electrons                  0          :
          ...................................................

 iter      E             dE          RMSdq      gap      omega  full diag
   1   -123.1553218 -0.123155E+03  0.443E+00    2.96       0.0  T
   2   -123.4637294 -0.308408E+00  0.242E+00    1.71       1.0  T
   3   -123.4763293 -0.125999E-01  0.134E+00    0.39       1.0  T
   4   -122.4965419  0.979787E+00  0.233E+00    0.58       1.0  T
   5   -123.4804633 -0.983921E+00  0.468E-01    0.95       1.0  T
   6   -123.4927749 -0.123116E-01  0.159E-01    0.51       1.0  T
   7   -123.4930366 -0.261741E-03  0.128E-01    0.49       1.0  T
   8   -123.4931980 -0.161395E-03  0.102E-01    0.42       1.0  T
   9   -123.4934017 -0.203673E-03  0.857E-02    0.34       1.0  T
  10   -123.4938156 -0.413850E-03  0.651E-02    0.26       1.0  T
  11   -123.4945258 -0.710284E-03  0.876E-03    0.18       1.4  T
  12   -123.4945154  0.104751E-04  0.987E-03    0.17       1.2  T
  13   -123.4945166 -0.121765E-05  0.927E-03    0.18       1.3  T
  14   -123.4945227 -0.611683E-05  0.710E-03    0.17       1.7  T
  15   -123.4945323 -0.962532E-05  0.318E-04    0.18      37.6  T
  16   -123.4945323 -0.103854E-07  0.172E-04    0.18      69.5  T
  17   -123.4945323 -0.372410E-08  0.561E-05    0.18     212.9  T

   *** convergence criteria satisfied after 17 iterations ***

         #    Occupation            Energy/Eh            Energy/eV
      -------------------------------------------------------------
         1        2.0000           -0.6635183             -18.0553
       ...           ...                  ...                  ...
       101        2.0000           -0.3173088              -8.6344
       102        2.0000           -0.3068567              -8.3500
       103        2.0000           -0.3034020              -8.2560
       104        2.0000           -0.2977037              -8.1009
       105        2.0000           -0.2313615              -6.2957
       106        2.0000           -0.2182528              -5.9390
       107        1.9382           -0.1892539              -5.1499 (HOMO)
       108        0.0618           -0.1827061              -4.9717 (LUMO)
       109        0.0000           -0.1711130              -4.6562
       110                         -0.1656823              -4.5084
       111                         -0.1617283              -4.4009
       112                         -0.1579736              -4.2987
       ...                                ...                  ...
       190                          0.9350562              25.4442
      -------------------------------------------------------------
                  HL-Gap            0.0065479 Eh            0.1782 eV
             Fermi-level           -0.1859800 Eh           -5.0608 eV

 SCC (total)                   0 d,  0 h,  0 min, 15.777 sec
 SCC setup                      ...        0 min,  0.025 sec (  0.160%)
 Dispersion                     ...        0 min,  0.059 sec (  0.374%)
 classical contributions        ...        0 min,  0.007 sec (  0.043%)
 integral evaluation            ...        0 min,  0.323 sec (  2.048%)
 iterations                     ...        0 min, 15.011 sec ( 95.148%)
 molecular gradient             ...        0 min,  0.342 sec (  2.168%)
 printout                       ...        0 min,  0.009 sec (  0.059%)

         :::::::::::::::::::::::::::::::::::::::::::::::::::::
         ::                     SUMMARY                     ::
         :::::::::::::::::::::::::::::::::::::::::::::::::::::
         :: total energy            -122.045722936702 Eh    ::
         :: gradient norm              0.292519589953 Eh/a0 ::
         :: HOMO-LUMO gap              0.178176406011 eV    ::
         ::.................................................::
         :: SCC energy              -123.493191365575 Eh    ::
         :: -> isotropic ES            0.386766370085 Eh    ::
         :: -> anisotropic ES          0.015039907519 Eh    ::
         :: -> anisotropic XC          0.030363520458 Eh    ::
         :: -> dispersion             -0.080003409122 Eh    ::
         :: repulsion energy           1.447468428873 Eh    ::
         :: add. restraining           0.000000000000 Eh    ::
         :: total charge              -1.000000000000 e     ::
         :::::::::::::::::::::::::::::::::::::::::::::::::::::

           -------------------------------------------------
          |                Property Printout                |
           -------------------------------------------------

    * Orbital Energies and Occupations

         #    Occupation            Energy/Eh            Energy/eV
      -------------------------------------------------------------
         1        2.0000           -0.6635183             -18.0553
       ...           ...                  ...                  ...
        95        2.0000           -0.3344318              -9.1004
        96        2.0000           -0.3321583              -9.0385
        97        2.0000           -0.3287897              -8.9468
        98        2.0000           -0.3268110              -8.8930
        99        2.0000           -0.3238402              -8.8121
       100        2.0000           -0.3219268              -8.7601
       101        2.0000           -0.3173088              -8.6344
       102        2.0000           -0.3068567              -8.3500
       103        2.0000           -0.3034020              -8.2560
       104        2.0000           -0.2977037              -8.1009
       105        2.0000           -0.2313615              -6.2957
       106        2.0000           -0.2182528              -5.9390
       107        1.9382           -0.1892539              -5.1499 (HOMO)
       108        0.0618           -0.1827061              -4.9717 (LUMO)
       109        0.0000           -0.1711130              -4.6562
       110                         -0.1656823              -4.5084
       111                         -0.1617283              -4.4009
       112                         -0.1579736              -4.2987
       113                         -0.1501884              -4.0868
       114                         -0.1468110              -3.9949
       115                         -0.1325933              -3.6080
       116                         -0.1243566              -3.3839
       117                         -0.0399914              -1.0882
       118                          0.0049320               0.1342
       ...                                ...                  ...
       190                          0.9350562              25.4442
      -------------------------------------------------------------
                  HL-Gap            0.0065479 Eh            0.1782 eV
             Fermi-level           -0.1859800 Eh           -5.0608 eV

     #   Z          covCN         q      C6AA      α(0)
     1   7 N        2.678    -0.211    25.585     7.512
     2   6 C        3.737    -0.013    20.896     6.523
     3   6 C        2.742     0.283    22.215     7.717
     4   8 O        0.859    -0.434    22.370     6.341
     5   7 N        2.683    -0.188    25.078     7.438
     6   6 C        3.770     0.004    20.537     6.458
     7   6 C        2.733     0.275    22.357     7.741
     8   6 C        3.771     0.013    20.397     6.436
     9   8 O        0.858    -0.390    21.489     6.215
    10   7 N        2.688    -0.198    25.300     7.470
    11   6 C        3.805    -0.049    21.449     6.593
    12   6 C        2.775     0.275    22.352     7.743
    13   6 C        3.801    -0.117    22.744     6.790
    14   6 C        3.714    -0.017    21.013     6.550
    15   8 O        0.862    -0.403    21.742     6.252
    16   6 C        2.672     0.374    20.658     7.437
    17   7 N        2.716    -0.182    24.938     7.417
    18   8 O        0.856    -0.559    25.144     6.723
    19   8 O        0.856    -0.574    25.500     6.770
    20   6 C        2.739     0.263    22.567     7.778
    21   6 C        3.788     0.018    20.278     6.413
    22   8 O        0.858    -0.408    21.839     6.265
    23   7 N        2.690    -0.169    24.648     7.374
    24   6 C        3.738    -0.105    22.583     6.781
    25   6 C        2.759     0.268    22.482     7.765
    26   6 C        3.749    -0.015    20.905     6.521
    27   8 O        0.858    -0.421    22.103     6.303
    28   7 N        2.696    -0.180    24.904     7.412
    29   6 C        2.765     0.279    22.287     7.731
    30   8 O        0.858    -0.405    21.783     6.258
    31   6 C        3.792    -0.060    21.665     6.629
    32   6 C        3.006    -0.035    28.848     8.810
    33   6 C        2.999     0.004    27.929     8.669
    34   6 C        3.090    -0.020    28.410     8.737
    35   7 N        2.742    -0.131    23.829     7.250
    36   6 C        3.024     0.051    26.820     8.495
    37   6 C        2.900    -0.042    29.041     8.836
    38   6 C        2.900    -0.056    29.395     8.890
    39   6 C        2.903    -0.038    28.936     8.820
    40   6 C        2.900    -0.048    29.183     8.858
    41   1 H        0.862     0.195     1.131     1.666
    42   1 H        0.924     0.076     2.025     2.225
    43   1 H        0.921     0.048     2.349     2.397
    44   1 H        0.859     0.182     1.204     1.719
    45   1 H        0.923     0.065     2.145     2.291
    46   1 H        0.923     0.053     2.282     2.363
    47   1 H        0.860     0.177     1.232     1.738
    48   1 H        0.928     0.037     2.490     2.467
    49   1 H        0.921     0.050     2.326     2.385
    50   1 H        0.928     0.008     2.914     2.669
    51   1 H        0.929     0.024     2.675     2.557
    52   1 H        0.922     0.082     1.963     2.191
    53   1 H        0.903     0.065     2.141     2.289
    54   1 H        0.860     0.189     1.167     1.692
    55   1 H        0.912     0.062     2.183     2.311
    56   1 H        0.861     0.178     1.223     1.732
    57   1 H        0.922     0.053     2.282     2.362
    58   1 H        0.920     0.058     2.221     2.331
    59   1 H        0.914     0.044     2.395     2.421
    60   1 H        0.928     0.068     2.111     2.272
    61   1 H        0.915     0.051     2.315     2.380
    62   1 H        0.862     0.217     1.024     1.585
    63   1 H        0.921     0.048     2.346     2.395
    64   1 H        0.923     0.064     2.157     2.297
    65   1 H        0.923     0.026     2.641     2.541
    66   1 H        0.860     0.154     1.375     1.837
    67   1 H        0.929     0.037     2.491     2.468
    68   1 H        0.928     0.029     2.604     2.523
    69   1 H        0.921     0.014     2.821     2.627
    70   1 H        0.917     0.011     2.878     2.653

 Mol. C6AA /au·bohr⁶  :      56312.273392
 Mol. C8AA /au·bohr⁸  :    1293339.645499
 Mol. α(0) /au        :        360.106397


Wiberg/Mayer (AO) data.
largest (>0.10) Wiberg bond orders for each atom

 ---------------------------------------------------------------------------
     #   Z sym  total        # sym  WBO       # sym  WBO       # sym  WBO
 ---------------------------------------------------------------------------
     1   7 N    3.336 --     7 C    1.197     2 C    0.970    41 H    0.923
                             9 O    0.175
     2   6 C    3.966 --     1 N    0.970    43 H    0.966    42 H    0.962
                             3 C    0.953
     3   6 C    3.952 --     4 O    1.671     5 N    1.265     2 C    0.953
     4   8 O    2.002 --     3 C    1.671     5 N    0.200
     5   7 N    3.431 --     3 C    1.265     6 C    0.962    44 H    0.937
                             4 O    0.200
     6   6 C    3.953 --    45 H    0.967     5 N    0.962    31 C    0.943
                            29 C    0.917
     7   6 C    3.934 --     9 O    1.775     1 N    1.197     8 C    0.888
     8   6 C    3.951 --    10 N    0.985    11 C    0.959    46 H    0.957
                             7 C    0.888
     9   8 O    2.077 --     7 C    1.775     1 N    0.175
    10   7 N    3.416 --    12 C    1.210     8 C    0.985    47 H    0.934
                            15 O    0.207
    11   6 C    3.982 --    13 C    1.018    48 H    0.978    49 H    0.960
                             8 C    0.959
    12   6 C    3.950 --    15 O    1.724    10 N    1.210    14 C    0.950
    13   6 C    3.927 --    11 C    1.018    51 H    0.985    50 H    0.973
                            16 C    0.813
    14   6 C    3.957 --    17 N    0.973    53 H    0.962    52 H    0.957
                            12 C    0.950
    15   8 O    2.050 --    12 C    1.724    10 N    0.207
    16   6 C    3.939 --    18 O    1.565    19 O    1.541    13 C    0.813
    17   7 N    3.444 --    20 C    1.261    14 C    0.973    54 H    0.919
                            22 O    0.211
    18   8 O    1.872 --    16 C    1.565    19 O    0.234
    19   8 O    1.848 --    16 C    1.541    18 O    0.234
    20   6 C    3.951 --    22 O    1.719    17 N    1.261    21 C    0.891
    21   6 C    3.963 --    24 C    1.002    23 N    1.001    55 H    0.932
                            20 C    0.891
    22   8 O    2.048 --    20 C    1.719    17 N    0.211
    23   7 N    3.455 --    25 C    1.252    21 C    1.001    56 H    0.935
                            27 O    0.190
    24   6 C    3.990 --    21 C    1.002    58 H    0.983    57 H    0.982
                            59 H    0.980
    25   6 C    3.946 --    27 O    1.706    23 N    1.252    26 C    0.905
    26   6 C    3.975 --    28 N    1.039    60 H    0.961    61 H    0.951
                            25 C    0.905
    27   8 O    2.045 --    25 C    1.706    23 N    0.190
    28   7 N    3.415 --    29 C    1.206    26 C    1.039    62 H    0.915
                            30 O    0.184
    29   6 C    3.946 --    30 O    1.736    28 N    1.206     6 C    0.917
    30   8 O    2.055 --    29 C    1.736    28 N    0.184
    31   6 C    3.986 --    32 C    1.029    63 H    0.967    64 H    0.966
                             6 C    0.943
    32   6 C    3.962 --    33 C    1.609    34 C    1.158    31 C    1.029
    33   6 C    3.937 --    32 C    1.609    35 N    1.185    65 H    0.965
    34   6 C    3.965 --    36 C    1.336    37 C    1.251    32 C    1.158
    35   7 N    3.463 --    33 C    1.185    36 C    1.116    66 H    0.943
    36   6 C    3.955 --    34 C    1.336    38 C    1.322    35 N    1.116
    37   6 C    3.970 --    39 C    1.585    34 C    1.251    67 H    0.971
    38   6 C    3.961 --    40 C    1.503    36 C    1.322    68 H    0.973
    39   6 C    3.988 --    37 C    1.585    40 C    1.312    69 H    0.968
    40   6 C    3.955 --    38 C    1.503    39 C    1.312    70 H    0.973
    41   1 H    0.962 --     1 N    0.923
    42   1 H    0.994 --     2 C    0.962
    43   1 H    0.997 --     2 C    0.966
    44   1 H    0.966 --     5 N    0.937
    45   1 H    0.996 --     6 C    0.967
    46   1 H    0.997 --     8 C    0.957
    47   1 H    0.969 --    10 N    0.934
    48   1 H    0.999 --    11 C    0.978
    49   1 H    0.995 --    11 C    0.960
    50   1 H    0.999 --    13 C    0.973
    51   1 H    0.999 --    13 C    0.985
    52   1 H    0.993 --    14 C    0.957
    53   1 H    0.996 --    14 C    0.962
    54   1 H    0.964 --    17 N    0.919
    55   1 H    0.996 --    21 C    0.932
    56   1 H    0.968 --    23 N    0.935
    57   1 H    0.997 --    24 C    0.982
    58   1 H    0.996 --    24 C    0.983
    59   1 H    0.998 --    24 C    0.980
    60   1 H    0.995 --    26 C    0.961
    61   1 H    0.997 --    26 C    0.951
    62   1 H    0.953 --    28 N    0.915
    63   1 H    0.997 --    31 C    0.967
    64   1 H    0.995 --    31 C    0.966
    65   1 H    0.998 --    33 C    0.965
    66   1 H    0.975 --    35 N    0.943
    67   1 H    0.998 --    37 C    0.971
    68   1 H    0.999 --    38 C    0.973
    69   1 H    0.999 --    39 C    0.968
    70   1 H    0.999 --    40 C    0.973
 ---------------------------------------------------------------------------

Topologies differ in total number of bonds
Writing topology from bond orders to xtbtopo.mol

molecular dipole:
                 x           y           z       tot (Debye)
 q only:        4.098       9.542       7.893
   full:        4.212       9.611       7.954      33.468
molecular quadrupole (traceless):
                xx          xy          yy          xz          yz          zz
 q only:       60.771     -72.555     -40.167     -63.118    -143.406     -20.604
  q+dip:       52.982     -73.790     -31.380     -61.521    -149.256     -21.602
   full:       56.059     -74.219     -33.571     -63.401    -148.335     -22.488


           -------------------------------------------------
          | TOTAL ENERGY             -122.045722936702 Eh   |
          | GRADIENT NORM               0.292519589953 Eh/α |
          | HOMO-LUMO GAP               0.178176406011 eV   |
           -------------------------------------------------

------------------------------------------------------------------------
 * finished run on 2026/05/23 at 08:14:25.542     
------------------------------------------------------------------------
 total:
 * wall-time:     0 d,  0 h,  0 min, 16.352 sec
 *  cpu-time:     0 d,  0 h,  0 min, 24.445 sec
 * ratio c/w:     1.495 speedup
 SCF:
 * wall-time:     0 d,  0 h,  0 min, 15.778 sec
 *  cpu-time:     0 d,  0 h,  0 min, 23.894 sec
 * ratio c/w:     1.514 speedup

normal termination of xtb
