      -----------------------------------------------------------      
     |                   =====================                   |     
     |                           x T B                           |     
     |                   =====================                   |     
     |                         S. Grimme                         |     
     |          Mulliken Center for Theoretical Chemistry        |     
     |                    University of Bonn                     |     
      -----------------------------------------------------------      

   * xtb version 6.7.1 (edcfbbe) compiled by 'albert@albert-system' on 2024-07-22

   xtb is free software: you can redistribute it and/or modify it under
   the terms of the GNU Lesser General Public License as published by
   the Free Software Foundation, either version 3 of the License, or
   (at your option) any later version.
   
   xtb is distributed in the hope that it will be useful,
   but WITHOUT ANY WARRANTY; without even the implied warranty of
   MERCHANTABILITY or FITNESS FOR A PARTICULAR PURPOSE.  See the
   GNU Lesser General Public License for more details.
   
   Cite this work as:
   * C. Bannwarth, E. Caldeweyher, S. Ehlert, A. Hansen, P. Pracht,
     J. Seibert, S. Spicher, S. Grimme, WIREs Comput. Mol. Sci., 2020, 11,
     e01493. DOI: 10.1002/wcms.1493
   
   for GFN2-xTB:
   * C. Bannwarth, S. Ehlert and S. Grimme., J. Chem. Theory Comput., 2019,
     15, 1652-1671. DOI: 10.1021/acs.jctc.8b01176
   for GFN1-xTB:
   * S. Grimme, C. Bannwarth, P. Shushkov, J. Chem. Theory Comput., 2017,
     13, 1989-2009. DOI: 10.1021/acs.jctc.7b00118
   for GFN0-xTB:
   * P. Pracht, E. Caldeweyher, S. Ehlert, S. Grimme, ChemRxiv, 2019, preprint.
     DOI: 10.26434/chemrxiv.8326202.v1
   for GFN-FF:
   * S. Spicher and S. Grimme, Angew. Chem. Int. Ed., 2020, 59, 15665-15673.
     DOI: 10.1002/anie.202004239
   
   for ALPB and GBSA implicit solvation:
   * S. Ehlert, M. Stahn, S. Spicher, S. Grimme, J. Chem. Theory Comput.,
     2021, 17, 4250-4261. DOI: 10.1021/acs.jctc.1c00471
   
   for ddCOSMO and CPCM-X implicit solvation:
   * M. Stahn, S. Ehlert, S. Grimme, J. Phys. Chem. A,
     2023, XX, XXXX-XXXX. DOI: 10.1021/acs.jpca.3c04382
   
   for DFT-D4:
   * E. Caldeweyher, C. Bannwarth and S. Grimme, J. Chem. Phys., 2017,
     147, 034112. DOI: 10.1063/1.4993215
   * E. Caldeweyher, S. Ehlert, A. Hansen, H. Neugebauer, S. Spicher,
     C. Bannwarth and S. Grimme, J. Chem. Phys., 2019, 150, 154122.
     DOI: 10.1063/1.5090222
   * E. Caldeweyher, J.-M. Mewes, S. Ehlert and S. Grimme, Phys. Chem. Chem. Phys.
     2020, 22, 8499-8512. DOI: 10.1039/D0CP00502A
   
   for sTDA-xTB:
   * S. Grimme and C. Bannwarth, J. Chem. Phys., 2016, 145, 054103.
     DOI: 10.1063/1.4959605
   
   in the mass-spec context:
   * V. Asgeirsson, C. Bauer and S. Grimme, Chem. Sci., 2017, 8, 4879.
     DOI: 10.1039/c7sc00601b
   * J. Koopman and S. Grimme, ACS Omega 2019, 4, 12, 15120-15133.
     DOI: 10.1021/acsomega.9b02011
   
   for metadynamics refer to:
   * S. Grimme, J. Chem. Theory Comput., 2019, 155, 2847-2862
     DOI: 10.1021/acs.jctc.9b00143
   
   for SPH calculations refer to:
   * S. Spicher and S. Grimme, J. Chem. Theory Comput., 2021, 17, 1701-1714
     DOI: 10.1021/acs.jctc.0c01306
   
   for ONIOM refer to:
   * C. Plett, A. Katbashev, S. Ehlert, S. Grimme, M. Bursch,
     Phys. Chem. Chem. Phys., 2023, 25, 17860-17868. DOI: 10.1039/D3CP02178E
   
   for DIPRO refer to:
   * J. Kohn, N. Gildemeister, S. Grimme, D. Fazzi, A. Hansen,
     J. Chem. Phys., 2023, just accepted.
   
   for PTB refer to:
   * S. Grimme, M. Mueller, A. Hansen, J. Chem. Phys., 2023, 158, 124111.
     DOI: 10.1063/5.0137838
   
   with help from (in alphabetical order)
   P. Atkinson, C. Bannwarth, F. Bohle, G. Brandenburg, E. Caldeweyher
   M. Checinski, S. Dohm, S. Ehlert, S. Ehrlich, I. Gerasimov, C. Hölzer
   A. Katbashev, J. Kohn, J. Koopman, C. Lavigne, S. Lehtola, F. März, M. Müller,
   F. Musil, H. Neugebauer, J. Pisarek, C. Plett, P. Pracht, F. Pultar,
   J. Seibert, P. Shushkov, S. Spicher, M. Stahn, M. Steiner, T. Strunk,
   J. Stückrath, T. Rose, and J. Unsleber
   
 * started run on 2026/05/23 at 12:46:36.555     
   ID    Z sym.   atoms
    1    7 N      1, 5, 13, 19, 23, 28, 35
    2    6 C      2, 3, 6-10, 12, 14, 15, 17, 20, 21, 24-26, 29, 30, 32, 33,
                  36, 37, 39, 41-44
    3    8 O      4, 11, 18, 22, 27, 31, 34, 38, 40
    4   16 S      16
    5    1 H      45-89

           -------------------------------------------------
          |                Calculation Setup                |
           -------------------------------------------------

          program call               : /home/xchen/software/xtb-6.7.1/xtb-dist/bin/xtb /home/xchen/Test/benchmark/md_sampled/06_7_0793_0/snap_0160.xyz --charge 0 --gfn 2 --norestart
          coordinate file            : /home/xchen/Test/benchmark/md_sampled/06_7_0793_0/snap_0160.xyz
          omp threads                :                    48


           -------------------------------------------------
          |                 G F N 2 - x T B                 |
           -------------------------------------------------

        Reference                      10.1021/acs.jctc.8b01176
      * Hamiltonian:
        H0-scaling (s, p, d)           1.850000    2.230000    2.230000
        zeta-weighting                 0.500000
      * Dispersion:
        s8                             2.700000
        a1                             0.520000
        a2                             5.000000
        s9                             5.000000
      * Repulsion:
        kExp                           1.500000    1.000000
        rExp                           1.000000
      * Coulomb:
        alpha                          2.000000
        third order                    shell-resolved
        anisotropic                    true
        a3                             3.000000
        a5                             4.000000
        cn-shift                       1.200000
        cn-exp                         4.000000
        max-rad                        5.000000


          ...................................................
          :                      SETUP                      :
          :.................................................:
          :  # basis functions                 227          :
          :  # atomic orbitals                 226          :
          :  # shells                          134          :
          :  # electrons                       248          :
          :  max. iterations                   250          :
          :  Hamiltonian                  GFN2-xTB          :
          :  restarted?                      false          :
          :  GBSA solvation                  false          :
          :  PC potential                    false          :
          :  electronic temp.          300.0000000     K    :
          :  accuracy                    1.0000000          :
          :  -> integral cutoff          0.2500000E+02      :
          :  -> integral neglect         0.1000000E-07      :
          :  -> SCF convergence          0.1000000E-05 Eh   :
          :  -> wf. convergence          0.1000000E-03 e    :
          :  Broyden damping             0.4000000          :
          :  net charge                          0          :
          :  unpaired electrons                  0          :
          ...................................................

 iter      E             dE          RMSdq      gap      omega  full diag
   1   -142.1987999 -0.142199E+03  0.417E+00    3.74       0.0  T
   2   -142.5251916 -0.326392E+00  0.224E+00    3.49       1.0  T
   3   -142.5398740 -0.146824E-01  0.116E+00    3.60       1.0  T
   4   -142.5466416 -0.676760E-02  0.211E-01    3.26       1.0  T
   5   -142.5480406 -0.139900E-02  0.113E-01    3.36       1.0  T
   6   -142.5481460 -0.105421E-03  0.331E-02    3.37       1.0  T
   7   -142.5481579 -0.119334E-04  0.142E-02    3.37       1.0  T
   8   -142.5481593 -0.138043E-05  0.574E-03    3.37       1.8  T
   9   -142.5481598 -0.432829E-06  0.174E-03    3.37       6.1  T
  10   -142.5481598 -0.313040E-07  0.795E-04    3.37      13.3  T
  11   -142.5481598 -0.109573E-07  0.259E-04    3.37      40.9  T

   *** convergence criteria satisfied after 11 iterations ***

         #    Occupation            Energy/Eh            Energy/eV
      -------------------------------------------------------------
         1        2.0000           -0.7311827             -19.8965
       ...           ...                  ...                  ...
       118        2.0000           -0.4035015             -10.9798
       119        2.0000           -0.4010667             -10.9136
       120        2.0000           -0.3995163             -10.8714
       121        2.0000           -0.3961134             -10.7788
       122        2.0000           -0.3934247             -10.7056
       123        2.0000           -0.3839858             -10.4488
       124        2.0000           -0.3735199             -10.1640 (HOMO)
       125                         -0.2497893              -6.7971 (LUMO)
       126                         -0.2414584              -6.5704
       127                         -0.2387113              -6.4957
       128                         -0.2320034              -6.3131
       129                         -0.2234567              -6.0806
       ...                                ...                  ...
       226                          0.7329837              19.9455
      -------------------------------------------------------------
                  HL-Gap            0.1237306 Eh            3.3669 eV
             Fermi-level           -0.3116546 Eh           -8.4806 eV

 SCC (total)                   0 d,  0 h,  0 min, 14.547 sec
 SCC setup                      ...        0 min,  0.032 sec (  0.221%)
 Dispersion                     ...        0 min,  0.089 sec (  0.613%)
 classical contributions        ...        0 min,  0.006 sec (  0.040%)
 integral evaluation            ...        0 min,  0.446 sec (  3.065%)
 iterations                     ...        0 min, 13.314 sec ( 91.526%)
 molecular gradient             ...        0 min,  0.644 sec (  4.427%)
 printout                       ...        0 min,  0.016 sec (  0.107%)

         :::::::::::::::::::::::::::::::::::::::::::::::::::::
         ::                     SUMMARY                     ::
         :::::::::::::::::::::::::::::::::::::::::::::::::::::
         :: total energy            -141.039495544485 Eh    ::
         :: gradient norm              0.349452116655 Eh/a0 ::
         :: HOMO-LUMO gap              3.366880054789 eV    ::
         ::.................................................::
         :: SCC energy              -142.542915001859 Eh    ::
         :: -> isotropic ES            0.316021564579 Eh    ::
         :: -> anisotropic ES          0.007763088045 Eh    ::
         :: -> anisotropic XC          0.039092840981 Eh    ::
         :: -> dispersion             -0.103673646873 Eh    ::
         :: repulsion energy           1.503419457374 Eh    ::
         :: add. restraining           0.000000000000 Eh    ::
         :: total charge              -0.000000000000 e     ::
         :::::::::::::::::::::::::::::::::::::::::::::::::::::

           -------------------------------------------------
          |                Property Printout                |
           -------------------------------------------------

    * Orbital Energies and Occupations

         #    Occupation            Energy/Eh            Energy/eV
      -------------------------------------------------------------
         1        2.0000           -0.7311827             -19.8965
       ...           ...                  ...                  ...
       112        2.0000           -0.4284446             -11.6586
       113        2.0000           -0.4279799             -11.6459
       114        2.0000           -0.4256572             -11.5827
       115        2.0000           -0.4121597             -11.2154
       116        2.0000           -0.4065224             -11.0620
       117        2.0000           -0.4039855             -10.9930
       118        2.0000           -0.4035015             -10.9798
       119        2.0000           -0.4010667             -10.9136
       120        2.0000           -0.3995163             -10.8714
       121        2.0000           -0.3961134             -10.7788
       122        2.0000           -0.3934247             -10.7056
       123        2.0000           -0.3839858             -10.4488
       124        2.0000           -0.3735199             -10.1640 (HOMO)
       125                         -0.2497893              -6.7971 (LUMO)
       126                         -0.2414584              -6.5704
       127                         -0.2387113              -6.4957
       128                         -0.2320034              -6.3131
       129                         -0.2234567              -6.0806
       130                         -0.2184579              -5.9445
       131                         -0.2171389              -5.9086
       132                         -0.2132225              -5.8021
       133                         -0.1241888              -3.3793
       134                         -0.0936558              -2.5485
       135                         -0.0881692              -2.3992
       ...                                ...                  ...
       226                          0.7329837              19.9455
      -------------------------------------------------------------
                  HL-Gap            0.1237306 Eh            3.3669 eV
             Fermi-level           -0.3116546 Eh           -8.4806 eV

     #   Z          covCN         q      C6AA      α(0)
     1   7 N        2.753    -0.146    24.147     7.298
     2   6 C        3.788     0.008    20.463     6.443
     3   6 C        2.758     0.283    22.201     7.716
     4   8 O        0.862    -0.423    22.147     6.310
     5   7 N        2.688    -0.145    24.142     7.297
     6   6 C        3.789     0.007    20.468     6.443
     7   6 C        3.746     0.010    20.478     6.455
     8   6 C        2.760     0.252    22.762     7.813
     9   6 C        3.816    -0.066    21.746     6.637
    10   6 C        3.861     0.031    20.022     6.363
    11   8 O        0.857    -0.417    22.022     6.292
    12   6 C        3.836    -0.066    21.729     6.632
    13   7 N        2.685    -0.219    25.789     7.542
    14   6 C        3.777    -0.029    21.126     6.549
    15   6 C        2.773     0.281    22.246     7.725
    16  16 S        1.911    -0.267   152.539    20.787
    17   6 C        3.731    -0.031    21.223     6.576
    18   8 O        0.858    -0.380    21.278     6.185
    19   7 N        2.682    -0.194    25.222     7.459
    20   6 C        2.765     0.279    22.283     7.731
    21   6 C        3.783     0.033    20.042     6.377
    22   8 O        0.860    -0.446    22.615     6.376
    23   7 N        2.682    -0.177    24.836     7.402
    24   6 C        3.755    -0.124    22.931     6.828
    25   6 C        2.746     0.276    22.328     7.737
    26   6 C        3.791     0.006    20.495     6.447
    27   8 O        0.859    -0.424    22.174     6.313
    28   7 N        2.678    -0.221    25.824     7.547
    29   6 C        3.720     0.122    18.692     6.175
    30   6 C        2.747     0.271    22.429     7.755
    31   8 O        1.641    -0.449    21.832     6.307
    32   6 C        3.734    -0.115    22.794     6.814
    33   6 C        3.822     0.030    20.046     6.371
    34   8 O        0.860    -0.437    22.423     6.349
    35   7 N        2.689    -0.154    24.327     7.325
    36   6 C        3.724     0.104    18.968     6.219
    37   6 C        2.765     0.270    22.444     7.758
    38   8 O        1.652    -0.460    22.054     6.339
    39   6 C        3.746    -0.124    22.952     6.834
    40   8 O        0.862    -0.446    22.615     6.376
    41   6 C        3.852    -0.016    20.817     6.489
    42   6 C        3.728    -0.094    22.399     6.757
    43   6 C        3.796    -0.051    21.495     6.602
    44   6 C        3.733    -0.100    22.508     6.771
    45   1 H        0.927     0.083     1.948     2.183
    46   1 H        0.859     0.179     1.221     1.731
    47   1 H        0.920     0.077     2.009     2.217
    48   1 H        0.916     0.046     2.375     2.410
    49   1 H        0.915     0.035     2.517     2.482
    50   1 H        0.928     0.059     2.212     2.326
    51   1 H        0.924     0.051     2.306     2.375
    52   1 H        0.927     0.067     2.120     2.277
    53   1 H        0.927     0.059     2.205     2.322
    54   1 H        0.929     0.051     2.311     2.377
    55   1 H        0.854     0.210     1.057     1.611
    56   1 H        0.921     0.080     1.978     2.200
    57   1 H        0.926     0.052     2.289     2.366
    58   1 H        0.924     0.171     1.257     1.753
    59   1 H        0.926     0.079     1.984     2.203
    60   1 H        0.926     0.106     1.728     2.056
    61   1 H        0.859     0.174     1.251     1.752
    62   1 H        0.919     0.085     1.932     2.174
    63   1 H        0.858     0.198     1.115     1.654
    64   1 H        0.929     0.097     1.812     2.105
    65   1 H        0.925     0.043     2.413     2.429
    66   1 H        0.925     0.053     2.289     2.366
    67   1 H        0.927     0.107     1.725     2.054
    68   1 H        0.861     0.203     1.093     1.638
    69   1 H        0.917     0.030     2.589     2.517
    70   1 H        0.792     0.307     0.701     1.317
    71   1 H        0.920     0.044     2.398     2.422
    72   1 H        0.907     0.041     2.445     2.446
    73   1 H        0.925     0.078     2.003     2.213
    74   1 H        0.921     0.064     2.155     2.296
    75   1 H        0.855     0.183     1.198     1.715
    76   1 H        0.923     0.047     2.358     2.402
    77   1 H        0.805     0.319     0.666     1.282
    78   1 H        0.926     0.057     2.234     2.337
    79   1 H        0.923     0.055     2.262     2.352
    80   1 H        0.925     0.042     2.419     2.432
    81   1 H        0.922     0.034     2.526     2.486
    82   1 H        0.914     0.037     2.488     2.467
    83   1 H        0.909     0.047     2.358     2.402
    84   1 H        0.918     0.034     2.536     2.491
    85   1 H        0.919     0.033     2.542     2.494
    86   1 H        0.920     0.021     2.725     2.582
    87   1 H        0.906     0.028     2.624     2.534
    88   1 H        0.925     0.048     2.349     2.397
    89   1 H        0.927     0.045     2.377     2.411

 Mol. C6AA /au·bohr⁶  :      76773.013638
 Mol. C8AA /au·bohr⁸  :    1766193.514846
 Mol. α(0) /au        :        413.574964


Wiberg/Mayer (AO) data.
largest (>0.10) Wiberg bond orders for each atom

 ---------------------------------------------------------------------------
     #   Z sym  total        # sym  WBO       # sym  WBO       # sym  WBO
 ---------------------------------------------------------------------------
     1   7 N    3.443 --     8 C    1.203     7 C    0.972     2 C    0.963
                            11 O    0.193
     2   6 C    3.957 --    12 C    0.963     1 N    0.963    45 H    0.956
                             3 C    0.934
     3   6 C    3.958 --     4 O    1.685     5 N    1.273     2 C    0.934
     4   8 O    2.018 --     3 C    1.685     5 N    0.197
     5   7 N    3.478 --     3 C    1.273     6 C    1.012    46 H    0.915
                             4 O    0.197
     6   6 C    3.961 --     5 N    1.012    41 C    0.947    47 H    0.938
                            37 C    0.909
     7   6 C    3.971 --     9 C    1.015     1 N    0.972    49 H    0.962
                            48 H    0.961
     8   6 C    3.947 --    11 O    1.709     1 N    1.203    10 C    0.929
     9   6 C    3.992 --     7 C    1.015    12 C    1.000    50 H    0.979
                            51 H    0.972
    10   6 C    3.981 --    13 N    1.005    14 C    0.983    52 H    0.941
                             8 C    0.929
    11   8 O    2.050 --     8 C    1.709     1 N    0.193
    12   6 C    3.989 --     9 C    1.000    54 H    0.984    53 H    0.982
                             2 C    0.963
    13   7 N    3.307 --    15 C    1.125    10 C    1.005    55 H    0.903
                            18 O    0.175
    14   6 C    3.976 --    10 C    0.983    16 S    0.977    57 H    0.974
                            56 H    0.972
    15   6 C    3.936 --    18 O    1.792    13 N    1.125    17 C    0.950
    16  16 S    2.002 --    14 C    0.977    58 H    0.960
    17   6 C    3.962 --    19 N    0.974    59 H    0.972    15 C    0.950
                            60 H    0.943
    18   8 O    2.093 --    15 C    1.792    13 N    0.175
    19   7 N    3.385 --    20 C    1.228    17 C    0.974    61 H    0.932
                            22 O    0.176
    20   6 C    3.953 --    22 O    1.647    19 N    1.228    21 C    1.008
    21   6 C    3.971 --    20 C    1.008    23 N    0.980    24 C    0.963
                            62 H    0.924
    22   8 O    1.980 --    20 C    1.647    19 N    0.176
    23   7 N    3.427 --    25 C    1.244    21 C    0.980    63 H    0.917
                            27 O    0.198
    24   6 C    3.982 --    66 H    0.989    64 H    0.978    65 H    0.973
                            21 C    0.963
    25   6 C    3.950 --    27 O    1.692    23 N    1.244    26 C    0.944
    26   6 C    3.950 --    29 C    0.976    28 N    0.948    25 C    0.944
                            67 H    0.940
    27   8 O    2.019 --    25 C    1.692    23 N    0.198
    28   7 N    3.396 --    30 C    1.254    26 C    0.948    68 H    0.914
                            34 O    0.193
    29   6 C    3.961 --    32 C    1.002    31 O    0.988    26 C    0.976
                            69 H    0.955
    30   6 C    3.955 --    34 O    1.691    28 N    1.254    33 C    0.922
    31   8 O    1.945 --    29 C    0.988    70 H    0.877
    32   6 C    3.991 --    29 C    1.002    71 H    0.986    73 H    0.979
                            72 H    0.978
    33   6 C    3.966 --    36 C    0.992    35 N    0.983    74 H    0.931
                            30 C    0.922
    34   8 O    2.007 --    30 C    1.691    28 N    0.193
    35   7 N    3.427 --    37 C    1.268    33 C    0.983    75 H    0.928
                            40 O    0.173
    36   6 C    3.963 --    33 C    0.992    38 O    0.986    39 C    0.981
                            76 H    0.964
    37   6 C    3.942 --    40 O    1.671    35 N    1.268     6 C    0.909
    38   8 O    1.960 --    36 C    0.986    77 H    0.869
    39   6 C    3.991 --    79 H    0.989    80 H    0.987    78 H    0.985
                            36 C    0.981
    40   8 O    1.997 --    37 C    1.671    35 N    0.173
    41   6 C    3.992 --    42 C    1.022    43 C    1.002    81 H    0.958
                             6 C    0.947
    42   6 C    3.994 --    41 C    1.022    84 H    0.981    82 H    0.980
                            83 H    0.976
    43   6 C    3.992 --    44 C    1.013    41 C    1.002    85 H    0.974
                            86 H    0.966
    44   6 C    3.994 --    43 C    1.013    87 H    0.988    89 H    0.986
                            88 H    0.985
    45   1 H    0.993 --     2 C    0.956
    46   1 H    0.968 --     5 N    0.915
    47   1 H    0.994 --     6 C    0.938
    48   1 H    0.998 --     7 C    0.961
    49   1 H    0.999 --     7 C    0.962
    50   1 H    0.996 --     9 C    0.979
    51   1 H    0.996 --     9 C    0.972
    52   1 H    0.995 --    10 C    0.941
    53   1 H    0.996 --    12 C    0.982
    54   1 H    0.997 --    12 C    0.984
    55   1 H    0.956 --    13 N    0.903
    56   1 H    0.994 --    14 C    0.972
    57   1 H    0.997 --    14 C    0.974
    58   1 H    0.971 --    16 S    0.960
    59   1 H    0.993 --    17 C    0.972
    60   1 H    0.989 --    17 C    0.943
    61   1 H    0.970 --    19 N    0.932
    62   1 H    0.992 --    21 C    0.924
    63   1 H    0.961 --    23 N    0.917
    64   1 H    0.991 --    24 C    0.978
    65   1 H    0.998 --    24 C    0.973
    66   1 H    0.997 --    24 C    0.989
    67   1 H    0.989 --    26 C    0.940
    68   1 H    0.959 --    28 N    0.914
    69   1 H    0.998 --    29 C    0.955
    70   1 H    0.905 --    31 O    0.877
    71   1 H    0.998 --    32 C    0.986
    72   1 H    0.998 --    32 C    0.978
    73   1 H    0.994 --    32 C    0.979
    74   1 H    0.995 --    33 C    0.931
    75   1 H    0.966 --    35 N    0.928
    76   1 H    0.997 --    36 C    0.964
    77   1 H    0.898 --    38 O    0.869
    78   1 H    0.997 --    39 C    0.985
    79   1 H    0.997 --    39 C    0.989
    80   1 H    0.998 --    39 C    0.987
    81   1 H    0.998 --    41 C    0.958
    82   1 H    0.999 --    42 C    0.980
    83   1 H    0.997 --    42 C    0.976
    84   1 H    0.999 --    42 C    0.981
    85   1 H    0.999 --    43 C    0.974
    86   1 H    1.000 --    43 C    0.966
    87   1 H    0.999 --    44 C    0.988
    88   1 H    0.998 --    44 C    0.985
    89   1 H    0.998 --    44 C    0.986
 ---------------------------------------------------------------------------

Topologies differ in total number of bonds
Writing topology from bond orders to xtbtopo.mol

molecular dipole:
                 x           y           z       tot (Debye)
 q only:        2.783      -0.865       0.626
   full:        3.480      -0.744       0.146       9.053
molecular quadrupole (traceless):
                xx          xy          yy          xz          yz          zz
 q only:       11.644      -3.457      30.525     -13.205     -15.815     -42.169
  q+dip:        6.427       1.770      42.061     -14.710     -17.337     -48.488
   full:        6.125       0.457      42.013     -15.601     -17.101     -48.138


           -------------------------------------------------
          | TOTAL ENERGY             -141.039495544485 Eh   |
          | GRADIENT NORM               0.349452116655 Eh/α |
          | HOMO-LUMO GAP               3.366880054789 eV   |
           -------------------------------------------------

------------------------------------------------------------------------
 * finished run on 2026/05/23 at 12:46:51.656     
------------------------------------------------------------------------
 total:
 * wall-time:     0 d,  0 h,  0 min, 15.099 sec
 *  cpu-time:     0 d,  0 h,  0 min, 16.783 sec
 * ratio c/w:     1.111 speedup
 SCF:
 * wall-time:     0 d,  0 h,  0 min, 14.548 sec
 *  cpu-time:     0 d,  0 h,  0 min, 16.136 sec
 * ratio c/w:     1.109 speedup

normal termination of xtb
