      -----------------------------------------------------------      
     |                   =====================                   |     
     |                           x T B                           |     
     |                   =====================                   |     
     |                         S. Grimme                         |     
     |          Mulliken Center for Theoretical Chemistry        |     
     |                    University of Bonn                     |     
      -----------------------------------------------------------      

   * xtb version 6.7.1 (edcfbbe) compiled by 'albert@albert-system' on 2024-07-22

   xtb is free software: you can redistribute it and/or modify it under
   the terms of the GNU Lesser General Public License as published by
   the Free Software Foundation, either version 3 of the License, or
   (at your option) any later version.
   
   xtb is distributed in the hope that it will be useful,
   but WITHOUT ANY WARRANTY; without even the implied warranty of
   MERCHANTABILITY or FITNESS FOR A PARTICULAR PURPOSE.  See the
   GNU Lesser General Public License for more details.
   
   Cite this work as:
   * C. Bannwarth, E. Caldeweyher, S. Ehlert, A. Hansen, P. Pracht,
     J. Seibert, S. Spicher, S. Grimme, WIREs Comput. Mol. Sci., 2020, 11,
     e01493. DOI: 10.1002/wcms.1493
   
   for GFN2-xTB:
   * C. Bannwarth, S. Ehlert and S. Grimme., J. Chem. Theory Comput., 2019,
     15, 1652-1671. DOI: 10.1021/acs.jctc.8b01176
   for GFN1-xTB:
   * S. Grimme, C. Bannwarth, P. Shushkov, J. Chem. Theory Comput., 2017,
     13, 1989-2009. DOI: 10.1021/acs.jctc.7b00118
   for GFN0-xTB:
   * P. Pracht, E. Caldeweyher, S. Ehlert, S. Grimme, ChemRxiv, 2019, preprint.
     DOI: 10.26434/chemrxiv.8326202.v1
   for GFN-FF:
   * S. Spicher and S. Grimme, Angew. Chem. Int. Ed., 2020, 59, 15665-15673.
     DOI: 10.1002/anie.202004239
   
   for ALPB and GBSA implicit solvation:
   * S. Ehlert, M. Stahn, S. Spicher, S. Grimme, J. Chem. Theory Comput.,
     2021, 17, 4250-4261. DOI: 10.1021/acs.jctc.1c00471
   
   for ddCOSMO and CPCM-X implicit solvation:
   * M. Stahn, S. Ehlert, S. Grimme, J. Phys. Chem. A,
     2023, XX, XXXX-XXXX. DOI: 10.1021/acs.jpca.3c04382
   
   for DFT-D4:
   * E. Caldeweyher, C. Bannwarth and S. Grimme, J. Chem. Phys., 2017,
     147, 034112. DOI: 10.1063/1.4993215
   * E. Caldeweyher, S. Ehlert, A. Hansen, H. Neugebauer, S. Spicher,
     C. Bannwarth and S. Grimme, J. Chem. Phys., 2019, 150, 154122.
     DOI: 10.1063/1.5090222
   * E. Caldeweyher, J.-M. Mewes, S. Ehlert and S. Grimme, Phys. Chem. Chem. Phys.
     2020, 22, 8499-8512. DOI: 10.1039/D0CP00502A
   
   for sTDA-xTB:
   * S. Grimme and C. Bannwarth, J. Chem. Phys., 2016, 145, 054103.
     DOI: 10.1063/1.4959605
   
   in the mass-spec context:
   * V. Asgeirsson, C. Bauer and S. Grimme, Chem. Sci., 2017, 8, 4879.
     DOI: 10.1039/c7sc00601b
   * J. Koopman and S. Grimme, ACS Omega 2019, 4, 12, 15120-15133.
     DOI: 10.1021/acsomega.9b02011
   
   for metadynamics refer to:
   * S. Grimme, J. Chem. Theory Comput., 2019, 155, 2847-2862
     DOI: 10.1021/acs.jctc.9b00143
   
   for SPH calculations refer to:
   * S. Spicher and S. Grimme, J. Chem. Theory Comput., 2021, 17, 1701-1714
     DOI: 10.1021/acs.jctc.0c01306
   
   for ONIOM refer to:
   * C. Plett, A. Katbashev, S. Ehlert, S. Grimme, M. Bursch,
     Phys. Chem. Chem. Phys., 2023, 25, 17860-17868. DOI: 10.1039/D3CP02178E
   
   for DIPRO refer to:
   * J. Kohn, N. Gildemeister, S. Grimme, D. Fazzi, A. Hansen,
     J. Chem. Phys., 2023, just accepted.
   
   for PTB refer to:
   * S. Grimme, M. Mueller, A. Hansen, J. Chem. Phys., 2023, 158, 124111.
     DOI: 10.1063/5.0137838
   
   with help from (in alphabetical order)
   P. Atkinson, C. Bannwarth, F. Bohle, G. Brandenburg, E. Caldeweyher
   M. Checinski, S. Dohm, S. Ehlert, S. Ehrlich, I. Gerasimov, C. Hölzer
   A. Katbashev, J. Kohn, J. Koopman, C. Lavigne, S. Lehtola, F. März, M. Müller,
   F. Musil, H. Neugebauer, J. Pisarek, C. Plett, P. Pracht, F. Pultar,
   J. Seibert, P. Shushkov, S. Spicher, M. Stahn, M. Steiner, T. Strunk,
   J. Stückrath, T. Rose, and J. Unsleber
   
 * started run on 2026/05/23 at 08:16:57.032     
   ID    Z sym.   atoms
    1    7 N      1, 5, 10, 17, 23, 28, 35
    2    6 C      2, 3, 6-8, 11-14, 16, 20, 21, 24-26, 29, 31-34, 36-40
    3    8 O      4, 9, 15, 18, 19, 22, 27, 30
    4    1 H      41-70

           -------------------------------------------------
          |                Calculation Setup                |
           -------------------------------------------------

          program call               : /home/xchen/software/xtb-6.7.1/xtb-dist/bin/xtb /home/xchen/Test/benchmark/md_sampled/01_6_0109_n1/snap_0133.xyz --charge -1 --gfn 2 --norestart
          coordinate file            : /home/xchen/Test/benchmark/md_sampled/01_6_0109_n1/snap_0133.xyz
          omp threads                :                    48


           -------------------------------------------------
          |                 G F N 2 - x T B                 |
           -------------------------------------------------

        Reference                      10.1021/acs.jctc.8b01176
      * Hamiltonian:
        H0-scaling (s, p, d)           1.850000    2.230000    2.230000
        zeta-weighting                 0.500000
      * Dispersion:
        s8                             2.700000
        a1                             0.520000
        a2                             5.000000
        s9                             5.000000
      * Repulsion:
        kExp                           1.500000    1.000000
        rExp                           1.000000
      * Coulomb:
        alpha                          2.000000
        third order                    shell-resolved
        anisotropic                    true
        a3                             3.000000
        a5                             4.000000
        cn-shift                       1.200000
        cn-exp                         4.000000
        max-rad                        5.000000


          ...................................................
          :                      SETUP                      :
          :.................................................:
          :  # basis functions                 190          :
          :  # atomic orbitals                 190          :
          :  # shells                          110          :
          :  # electrons                       214          :
          :  max. iterations                   250          :
          :  Hamiltonian                  GFN2-xTB          :
          :  restarted?                      false          :
          :  GBSA solvation                  false          :
          :  PC potential                    false          :
          :  electronic temp.          300.0000000     K    :
          :  accuracy                    1.0000000          :
          :  -> integral cutoff          0.2500000E+02      :
          :  -> integral neglect         0.1000000E-07      :
          :  -> SCF convergence          0.1000000E-05 Eh   :
          :  -> wf. convergence          0.1000000E-03 e    :
          :  Broyden damping             0.4000000          :
          :  net charge                         -1          :
          :  unpaired electrons                  0          :
          ...................................................

 iter      E             dE          RMSdq      gap      omega  full diag
   1   -123.0635980 -0.123064E+03  0.449E+00    3.26       0.0  T
   2   -123.4445048 -0.380907E+00  0.244E+00    2.45       1.0  T
   3   -123.4663876 -0.218828E-01  0.139E+00    1.31       1.0  T
   4   -123.4500352  0.163523E-01  0.571E-01    0.12       1.0  T
   5   -123.4785449 -0.285097E-01  0.157E-01    0.70       1.0  T
   6   -123.4791897 -0.644824E-03  0.806E-02    0.59       1.0  T
   7   -123.4792570 -0.672400E-04  0.446E-02    0.53       1.0  T
   8   -123.4792701 -0.130956E-04  0.183E-02    0.48       1.0  T
   9   -123.4792832 -0.131374E-04  0.680E-03    0.46       1.8  T
  10   -123.4792839 -0.672187E-06  0.309E-03    0.46       3.9  T
  11   -123.4792841 -0.219171E-06  0.979E-04    0.46      12.2  T
  12   -123.4792841 -0.106105E-07  0.289E-04    0.46      41.4  T

   *** convergence criteria satisfied after 12 iterations ***

         #    Occupation            Energy/Eh            Energy/eV
      -------------------------------------------------------------
         1        2.0000           -0.6503723             -17.6975
       ...           ...                  ...                  ...
       101        2.0000           -0.3211205              -8.7381
       102        2.0000           -0.3144321              -8.5561
       103        2.0000           -0.3120968              -8.4926
       104        2.0000           -0.2977805              -8.1030
       105        2.0000           -0.2251829              -6.1275
       106        2.0000           -0.2122278              -5.7750
       107        1.9997           -0.2012149              -5.4753 (HOMO)
       108        0.0002           -0.1842991              -5.0150 (LUMO)
       109        0.0001           -0.1833987              -4.9905
       110                         -0.1699745              -4.6252
       111                         -0.1608957              -4.3782
       112                         -0.1584381              -4.3113
       ...                                ...                  ...
       190                          0.7556824              20.5632
      -------------------------------------------------------------
                  HL-Gap            0.0169158 Eh            0.4603 eV
             Fermi-level           -0.1929126 Eh           -5.2494 eV

 SCC (total)                   0 d,  0 h,  0 min,  9.789 sec
 SCC setup                      ...        0 min,  0.045 sec (  0.461%)
 Dispersion                     ...        0 min,  0.102 sec (  1.038%)
 classical contributions        ...        0 min,  0.012 sec (  0.123%)
 integral evaluation            ...        0 min,  0.545 sec (  5.563%)
 iterations                     ...        0 min,  8.674 sec ( 88.610%)
 molecular gradient             ...        0 min,  0.403 sec (  4.120%)
 printout                       ...        0 min,  0.008 sec (  0.085%)

         :::::::::::::::::::::::::::::::::::::::::::::::::::::
         ::                     SUMMARY                     ::
         :::::::::::::::::::::::::::::::::::::::::::::::::::::
         :: total energy            -122.025846136450 Eh    ::
         :: gradient norm              0.340529972093 Eh/a0 ::
         :: HOMO-LUMO gap              0.460303130498 eV    ::
         ::.................................................::
         :: SCC energy              -123.477946026133 Eh    ::
         :: -> isotropic ES            0.408703347556 Eh    ::
         :: -> anisotropic ES          0.018237003452 Eh    ::
         :: -> anisotropic XC          0.030526854698 Eh    ::
         :: -> dispersion             -0.080417128376 Eh    ::
         :: repulsion energy           1.452099889683 Eh    ::
         :: add. restraining           0.000000000000 Eh    ::
         :: total charge              -0.999999999999 e     ::
         :::::::::::::::::::::::::::::::::::::::::::::::::::::

           -------------------------------------------------
          |                Property Printout                |
           -------------------------------------------------

    * Orbital Energies and Occupations

         #    Occupation            Energy/Eh            Energy/eV
      -------------------------------------------------------------
         1        2.0000           -0.6503723             -17.6975
       ...           ...                  ...                  ...
        95        2.0000           -0.3313251              -9.0158
        96        2.0000           -0.3300027              -8.9798
        97        2.0000           -0.3288993              -8.9498
        98        2.0000           -0.3270364              -8.8991
        99        2.0000           -0.3258278              -8.8662
       100        2.0000           -0.3249950              -8.8436
       101        2.0000           -0.3211205              -8.7381
       102        2.0000           -0.3144321              -8.5561
       103        2.0000           -0.3120968              -8.4926
       104        2.0000           -0.2977805              -8.1030
       105        2.0000           -0.2251829              -6.1275
       106        2.0000           -0.2122278              -5.7750
       107        1.9997           -0.2012149              -5.4753 (HOMO)
       108        0.0002           -0.1842991              -5.0150 (LUMO)
       109        0.0001           -0.1833987              -4.9905
       110                         -0.1699745              -4.6252
       111                         -0.1608957              -4.3782
       112                         -0.1584381              -4.3113
       113                         -0.1528647              -4.1597
       114                         -0.1470694              -4.0020
       115                         -0.1446390              -3.9358
       116                         -0.1182202              -3.2169
       117                         -0.0372713              -1.0142
       118                         -0.0172529              -0.4695
       ...                                ...                  ...
       190                          0.7556824              20.5632
      -------------------------------------------------------------
                  HL-Gap            0.0169158 Eh            0.4603 eV
             Fermi-level           -0.1929126 Eh           -5.2494 eV

     #   Z          covCN         q      C6AA      α(0)
     1   7 N        2.687    -0.162    24.502     7.352
     2   6 C        3.746    -0.017    20.944     6.528
     3   6 C        2.745     0.271    22.411     7.751
     4   8 O        0.859    -0.415    21.988     6.287
     5   7 N        2.684    -0.185    25.008     7.427
     6   6 C        3.805     0.021    20.225     6.402
     7   6 C        2.762     0.267    22.498     7.768
     8   6 C        3.792     0.010    20.418     6.435
     9   8 O        0.858    -0.473    23.186     6.456
    10   7 N        2.678    -0.148    24.215     7.308
    11   6 C        3.801    -0.068    21.809     6.649
    12   6 C        2.755     0.268    22.481     7.764
    13   6 C        3.758    -0.114    22.741     6.799
    14   6 C        3.761    -0.025    21.072     6.544
    15   8 O        0.859    -0.437    22.428     6.349
    16   6 C        2.660     0.354    20.991     7.496
    17   7 N        2.693    -0.159    24.448     7.343
    18   8 O        0.856    -0.566    25.292     6.743
    19   8 O        0.855    -0.579    25.604     6.784
    20   6 C        2.791     0.267    22.491     7.769
    21   6 C        3.801     0.023    20.183     6.396
    22   8 O        0.858    -0.447    22.650     6.381
    23   7 N        2.690    -0.208    25.537     7.505
    24   6 C        3.776    -0.109    22.604     6.774
    25   6 C        2.748     0.267    22.494     7.766
    26   6 C        3.759    -0.010    20.812     6.504
    27   8 O        0.856    -0.423    22.141     6.309
    28   7 N        2.700    -0.180    24.900     7.411
    29   6 C        2.768     0.279    22.288     7.732
    30   8 O        0.859    -0.428    22.245     6.324
    31   6 C        3.810    -0.074    21.911     6.663
    32   6 C        3.026    -0.035    28.844     8.809
    33   6 C        3.010    -0.003    28.091     8.694
    34   6 C        3.168    -0.017    28.067     8.656
    35   7 N        2.832    -0.090    22.989     7.121
    36   6 C        3.009     0.036    27.185     8.553
    37   6 C        2.928    -0.039    28.964     8.826
    38   6 C        2.904    -0.048    29.186     8.858
    39   6 C        2.904    -0.043    29.071     8.841
    40   6 C        2.915    -0.048    29.192     8.860
    41   1 H        0.860     0.188     1.172     1.696
    42   1 H        0.929     0.111     1.684     2.029
    43   1 H        0.917     0.067     2.119     2.277
    44   1 H        0.861     0.176     1.237     1.742
    45   1 H        0.927     0.080     1.981     2.201
    46   1 H        0.926     0.080     1.979     2.200
    47   1 H        0.844     0.173     1.258     1.758
    48   1 H        0.922     0.034     2.538     2.491
    49   1 H        0.926     0.074     2.041     2.234
    50   1 H        0.928     0.007     2.940     2.681
    51   1 H        0.914     0.001     3.043     2.728
    52   1 H        0.925     0.083     1.947     2.182
    53   1 H        0.925     0.065     2.142     2.289
    54   1 H        0.860     0.192     1.150     1.680
    55   1 H        0.928     0.069     2.093     2.262
    56   1 H        0.860     0.172     1.261     1.759
    57   1 H        0.925     0.038     2.481     2.463
    58   1 H        0.921     0.060     2.200     2.320
    59   1 H        0.923     0.054     2.272     2.357
    60   1 H        0.928     0.079     1.986     2.204
    61   1 H        0.922     0.072     2.066     2.248
    62   1 H        0.852     0.204     1.087     1.634
    63   1 H        0.920     0.056     2.243     2.342
    64   1 H        0.929     0.067     2.114     2.274
    65   1 H        0.928     0.045     2.385     2.415
    66   1 H        0.859     0.146     1.426     1.870
    67   1 H        0.928     0.031     2.578     2.511
    68   1 H        0.923     0.012     2.862     2.646
    69   1 H        0.921     0.018     2.761     2.599
    70   1 H        0.929     0.036     2.500     2.472

 Mol. C6AA /au·bohr⁶  :      56164.450829
 Mol. C8AA /au·bohr⁸  :    1291456.381415
 Mol. α(0) /au        :        359.501160


Wiberg/Mayer (AO) data.
largest (>0.10) Wiberg bond orders for each atom

 ---------------------------------------------------------------------------
     #   Z sym  total        # sym  WBO       # sym  WBO       # sym  WBO
 ---------------------------------------------------------------------------
     1   7 N    3.463 --     7 C    1.275     2 C    1.007    41 H    0.921
                             9 O    0.180
     2   6 C    3.963 --     1 N    1.007    43 H    0.954    42 H    0.952
                             3 C    0.948
     3   6 C    3.949 --     4 O    1.707     5 N    1.209     2 C    0.948
     4   8 O    2.021 --     3 C    1.707     5 N    0.199
     5   7 N    3.427 --     3 C    1.209     6 C    0.985    44 H    0.942
                             4 O    0.199
     6   6 C    3.965 --     5 N    0.985    45 H    0.952    29 C    0.952
                            31 C    0.942
     7   6 C    3.948 --     9 O    1.633     1 N    1.275     8 C    0.945
     8   6 C    3.957 --    10 N    0.989     7 C    0.945    46 H    0.944
                            11 C    0.940
     9   8 O    1.958 --     7 C    1.633     1 N    0.180
    10   7 N    3.489 --    12 C    1.297     8 C    0.989    47 H    0.921
                            15 O    0.211
    11   6 C    3.975 --    13 C    0.996    48 H    0.981    49 H    0.969
                             8 C    0.940
    12   6 C    3.954 --    15 O    1.654    10 N    1.297    14 C    0.947
    13   6 C    3.949 --    11 C    0.996    51 H    0.982    50 H    0.974
                            16 C    0.824
    14   6 C    3.958 --    53 H    0.967    52 H    0.964    17 N    0.961
                            12 C    0.947
    15   8 O    1.995 --    12 C    1.654    10 N    0.211
    16   6 C    3.942 --    18 O    1.559    19 O    1.541    13 C    0.824
    17   7 N    3.474 --    20 C    1.319    14 C    0.961    54 H    0.931
                            22 O    0.206
    18   8 O    1.881 --    16 C    1.559    19 O    0.237
    19   8 O    1.857 --    16 C    1.541    18 O    0.237
    20   6 C    3.957 --    22 O    1.650    17 N    1.319    21 C    0.918
    21   6 C    3.969 --    24 C    1.008    23 N    0.977    55 H    0.956
                            20 C    0.918
    22   8 O    1.976 --    20 C    1.650    17 N    0.206
    23   7 N    3.383 --    25 C    1.188    21 C    0.977    56 H    0.941
                            27 O    0.189
    24   6 C    3.988 --    21 C    1.008    57 H    0.984    59 H    0.980
                            58 H    0.979
    25   6 C    3.945 --    27 O    1.710    23 N    1.188    26 C    0.970
    26   6 C    3.979 --    28 N    1.015    25 C    0.970    60 H    0.955
                            61 H    0.937
    27   8 O    2.020 --    25 C    1.710    23 N    0.189
    28   7 N    3.427 --    29 C    1.229    26 C    1.015    62 H    0.904
                            30 O    0.200
    29   6 C    3.953 --    30 O    1.690    28 N    1.229     6 C    0.952
    30   8 O    2.019 --    29 C    1.690    28 N    0.200
    31   6 C    3.971 --    32 C    1.014    64 H    0.968    63 H    0.953
                             6 C    0.942
    32   6 C    3.967 --    33 C    1.529    34 C    1.246    31 C    1.014
    33   6 C    3.952 --    32 C    1.529    35 N    1.226    65 H    0.970
    34   6 C    3.983 --    37 C    1.304    32 C    1.246    36 C    1.226
    35   7 N    3.547 --    33 C    1.226    36 C    1.169    66 H    0.944
    36   6 C    3.954 --    38 C    1.338    34 C    1.226    35 N    1.169
    37   6 C    3.994 --    39 C    1.554    34 C    1.304    67 H    0.970
    38   6 C    3.985 --    40 C    1.523    36 C    1.338    68 H    0.965
    39   6 C    3.987 --    37 C    1.554    40 C    1.311    69 H    0.971
    40   6 C    3.989 --    38 C    1.523    39 C    1.311    70 H    0.976
    41   1 H    0.965 --     1 N    0.921
    42   1 H    0.987 --     2 C    0.952
    43   1 H    0.995 --     2 C    0.954
    44   1 H    0.969 --     5 N    0.942
    45   1 H    0.993 --     6 C    0.952
    46   1 H    0.993 --     8 C    0.944
    47   1 H    0.970 --    10 N    0.921
    48   1 H    0.999 --    11 C    0.981
    49   1 H    0.994 --    11 C    0.969
    50   1 H    1.000 --    13 C    0.974
    51   1 H    1.000 --    13 C    0.982
    52   1 H    0.992 --    14 C    0.964
    53   1 H    0.996 --    14 C    0.967
    54   1 H    0.963 --    17 N    0.931
    55   1 H    0.995 --    21 C    0.956
    56   1 H    0.970 --    23 N    0.941
    57   1 H    0.998 --    24 C    0.984
    58   1 H    0.996 --    24 C    0.979
    59   1 H    0.997 --    24 C    0.980
    60   1 H    0.994 --    26 C    0.955
    61   1 H    0.995 --    26 C    0.937
    62   1 H    0.958 --    28 N    0.904
    63   1 H    0.996 --    31 C    0.953
    64   1 H    0.995 --    31 C    0.968
    65   1 H    0.997 --    33 C    0.970
    66   1 H    0.978 --    35 N    0.944
    67   1 H    0.999 --    37 C    0.970
    68   1 H    0.999 --    38 C    0.965
    69   1 H    0.999 --    39 C    0.971
    70   1 H    0.998 --    40 C    0.976
 ---------------------------------------------------------------------------

Topologies differ in total number of bonds
Writing topology from bond orders to xtbtopo.mol

molecular dipole:
                 x           y           z       tot (Debye)
 q only:        3.671       9.238       7.193
   full:        3.722       9.508       7.455      32.134
molecular quadrupole (traceless):
                xx          xy          yy          xz          yz          zz
 q only:       59.536     -43.584     -57.612     -29.208    -127.413      -1.925
  q+dip:       47.226     -42.196     -51.232     -26.176    -132.779       4.006
   full:       49.904     -42.919     -52.664     -27.112    -131.102       2.760


           -------------------------------------------------
          | TOTAL ENERGY             -122.025846136450 Eh   |
          | GRADIENT NORM               0.340529972093 Eh/α |
          | HOMO-LUMO GAP               0.460303130498 eV   |
           -------------------------------------------------

------------------------------------------------------------------------
 * finished run on 2026/05/23 at 08:17:07.519     
------------------------------------------------------------------------
 total:
 * wall-time:     0 d,  0 h,  0 min, 10.486 sec
 *  cpu-time:     0 d,  0 h,  0 min, 14.342 sec
 * ratio c/w:     1.368 speedup
 SCF:
 * wall-time:     0 d,  0 h,  0 min,  9.790 sec
 *  cpu-time:     0 d,  0 h,  0 min, 13.550 sec
 * ratio c/w:     1.384 speedup

normal termination of xtb
