      -----------------------------------------------------------      
     |                   =====================                   |     
     |                           x T B                           |     
     |                   =====================                   |     
     |                         S. Grimme                         |     
     |          Mulliken Center for Theoretical Chemistry        |     
     |                    University of Bonn                     |     
      -----------------------------------------------------------      

   * xtb version 6.7.1 (edcfbbe) compiled by 'albert@albert-system' on 2024-07-22

   xtb is free software: you can redistribute it and/or modify it under
   the terms of the GNU Lesser General Public License as published by
   the Free Software Foundation, either version 3 of the License, or
   (at your option) any later version.
   
   xtb is distributed in the hope that it will be useful,
   but WITHOUT ANY WARRANTY; without even the implied warranty of
   MERCHANTABILITY or FITNESS FOR A PARTICULAR PURPOSE.  See the
   GNU Lesser General Public License for more details.
   
   Cite this work as:
   * C. Bannwarth, E. Caldeweyher, S. Ehlert, A. Hansen, P. Pracht,
     J. Seibert, S. Spicher, S. Grimme, WIREs Comput. Mol. Sci., 2020, 11,
     e01493. DOI: 10.1002/wcms.1493
   
   for GFN2-xTB:
   * C. Bannwarth, S. Ehlert and S. Grimme., J. Chem. Theory Comput., 2019,
     15, 1652-1671. DOI: 10.1021/acs.jctc.8b01176
   for GFN1-xTB:
   * S. Grimme, C. Bannwarth, P. Shushkov, J. Chem. Theory Comput., 2017,
     13, 1989-2009. DOI: 10.1021/acs.jctc.7b00118
   for GFN0-xTB:
   * P. Pracht, E. Caldeweyher, S. Ehlert, S. Grimme, ChemRxiv, 2019, preprint.
     DOI: 10.26434/chemrxiv.8326202.v1
   for GFN-FF:
   * S. Spicher and S. Grimme, Angew. Chem. Int. Ed., 2020, 59, 15665-15673.
     DOI: 10.1002/anie.202004239
   
   for ALPB and GBSA implicit solvation:
   * S. Ehlert, M. Stahn, S. Spicher, S. Grimme, J. Chem. Theory Comput.,
     2021, 17, 4250-4261. DOI: 10.1021/acs.jctc.1c00471
   
   for ddCOSMO and CPCM-X implicit solvation:
   * M. Stahn, S. Ehlert, S. Grimme, J. Phys. Chem. A,
     2023, XX, XXXX-XXXX. DOI: 10.1021/acs.jpca.3c04382
   
   for DFT-D4:
   * E. Caldeweyher, C. Bannwarth and S. Grimme, J. Chem. Phys., 2017,
     147, 034112. DOI: 10.1063/1.4993215
   * E. Caldeweyher, S. Ehlert, A. Hansen, H. Neugebauer, S. Spicher,
     C. Bannwarth and S. Grimme, J. Chem. Phys., 2019, 150, 154122.
     DOI: 10.1063/1.5090222
   * E. Caldeweyher, J.-M. Mewes, S. Ehlert and S. Grimme, Phys. Chem. Chem. Phys.
     2020, 22, 8499-8512. DOI: 10.1039/D0CP00502A
   
   for sTDA-xTB:
   * S. Grimme and C. Bannwarth, J. Chem. Phys., 2016, 145, 054103.
     DOI: 10.1063/1.4959605
   
   in the mass-spec context:
   * V. Asgeirsson, C. Bauer and S. Grimme, Chem. Sci., 2017, 8, 4879.
     DOI: 10.1039/c7sc00601b
   * J. Koopman and S. Grimme, ACS Omega 2019, 4, 12, 15120-15133.
     DOI: 10.1021/acsomega.9b02011
   
   for metadynamics refer to:
   * S. Grimme, J. Chem. Theory Comput., 2019, 155, 2847-2862
     DOI: 10.1021/acs.jctc.9b00143
   
   for SPH calculations refer to:
   * S. Spicher and S. Grimme, J. Chem. Theory Comput., 2021, 17, 1701-1714
     DOI: 10.1021/acs.jctc.0c01306
   
   for ONIOM refer to:
   * C. Plett, A. Katbashev, S. Ehlert, S. Grimme, M. Bursch,
     Phys. Chem. Chem. Phys., 2023, 25, 17860-17868. DOI: 10.1039/D3CP02178E
   
   for DIPRO refer to:
   * J. Kohn, N. Gildemeister, S. Grimme, D. Fazzi, A. Hansen,
     J. Chem. Phys., 2023, just accepted.
   
   for PTB refer to:
   * S. Grimme, M. Mueller, A. Hansen, J. Chem. Phys., 2023, 158, 124111.
     DOI: 10.1063/5.0137838
   
   with help from (in alphabetical order)
   P. Atkinson, C. Bannwarth, F. Bohle, G. Brandenburg, E. Caldeweyher
   M. Checinski, S. Dohm, S. Ehlert, S. Ehrlich, I. Gerasimov, C. Hölzer
   A. Katbashev, J. Kohn, J. Koopman, C. Lavigne, S. Lehtola, F. März, M. Müller,
   F. Musil, H. Neugebauer, J. Pisarek, C. Plett, P. Pracht, F. Pultar,
   J. Seibert, P. Shushkov, S. Spicher, M. Stahn, M. Steiner, T. Strunk,
   J. Stückrath, T. Rose, and J. Unsleber
   
 * started run on 2026/05/23 at 12:27:55.253     
   ID    Z sym.   atoms
    1    7 N      1, 5, 10, 18, 28, 30, 37-39, 41, 47, 48, 56
    2    6 C      2, 3, 6-8, 11-14, 16, 17, 19-25, 27, 29, 31-34, 36, 40,
                  42-45, 49, 51-55
    3    8 O      4, 9, 15, 26, 35, 46, 50
    4    1 H      57-115

           -------------------------------------------------
          |                Calculation Setup                |
           -------------------------------------------------

          program call               : /home/xchen/software/xtb-6.7.1/xtb-dist/bin/xtb /home/xchen/Test/benchmark/md_sampled/03_6_0978_0/snap_0027.xyz --charge 0 --gfn 2 --norestart
          coordinate file            : /home/xchen/Test/benchmark/md_sampled/03_6_0978_0/snap_0027.xyz
          omp threads                :                    48


           -------------------------------------------------
          |                 G F N 2 - x T B                 |
           -------------------------------------------------

        Reference                      10.1021/acs.jctc.8b01176
      * Hamiltonian:
        H0-scaling (s, p, d)           1.850000    2.230000    2.230000
        zeta-weighting                 0.500000
      * Dispersion:
        s8                             2.700000
        a1                             0.520000
        a2                             5.000000
        s9                             5.000000
      * Repulsion:
        kExp                           1.500000    1.000000
        rExp                           1.000000
      * Coulomb:
        alpha                          2.000000
        third order                    shell-resolved
        anisotropic                    true
        a3                             3.000000
        a5                             4.000000
        cn-shift                       1.200000
        cn-exp                         4.000000
        max-rad                        5.000000


          ...................................................
          :                      SETUP                      :
          :.................................................:
          :  # basis functions                 283          :
          :  # atomic orbitals                 283          :
          :  # shells                          171          :
          :  # electrons                       310          :
          :  max. iterations                   250          :
          :  Hamiltonian                  GFN2-xTB          :
          :  restarted?                      false          :
          :  GBSA solvation                  false          :
          :  PC potential                    false          :
          :  electronic temp.          300.0000000     K    :
          :  accuracy                    1.0000000          :
          :  -> integral cutoff          0.2500000E+02      :
          :  -> integral neglect         0.1000000E-07      :
          :  -> SCF convergence          0.1000000E-05 Eh   :
          :  -> wf. convergence          0.1000000E-03 e    :
          :  Broyden damping             0.4000000          :
          :  net charge                          0          :
          :  unpaired electrons                  0          :
          ...................................................

 iter      E             dE          RMSdq      gap      omega  full diag
   1   -175.1670100 -0.175167E+03  0.389E+00    2.98       0.0  T
   2   -175.5119018 -0.344892E+00  0.214E+00    2.52       1.0  T
   3   -175.5280796 -0.161777E-01  0.111E+00    2.92       1.0  T
   4   -175.5339716 -0.589201E-02  0.257E-01    2.72       1.0  T
   5   -175.5402701 -0.629852E-02  0.964E-02    2.76       1.0  T
   6   -175.5406253 -0.355247E-03  0.448E-02    2.75       1.0  T
   7   -175.5406794 -0.540991E-04  0.213E-02    2.74       1.0  T
   8   -175.5406968 -0.173246E-04  0.674E-03    2.75       1.4  T
   9   -175.5406983 -0.150034E-05  0.301E-03    2.75       3.1  T
  10   -175.5406986 -0.318807E-06  0.133E-03    2.75       7.0  T
  11   -175.5406986 -0.413860E-07  0.609E-04    2.75      15.3  T
  12   -175.5406986 -0.154306E-07  0.192E-04    2.75      48.6  T

   *** convergence criteria satisfied after 12 iterations ***

         #    Occupation            Energy/Eh            Energy/eV
      -------------------------------------------------------------
         1        2.0000           -0.7141945             -19.4342
       ...           ...                  ...                  ...
       149        2.0000           -0.3792642             -10.3203
       150        2.0000           -0.3786624             -10.3039
       151        2.0000           -0.3776483             -10.2763
       152        2.0000           -0.3676346             -10.0038
       153        2.0000           -0.3627722              -9.8715
       154        2.0000           -0.3615062              -9.8371
       155        2.0000           -0.3585652              -9.7571 (HOMO)
       156                         -0.2576484              -7.0110 (LUMO)
       157                         -0.2474559              -6.7336
       158                         -0.2460029              -6.6941
       159                         -0.2392138              -6.5093
       160                         -0.2370403              -6.4502
       ...                                ...                  ...
       283                          0.6402223              17.4213
      -------------------------------------------------------------
                  HL-Gap            0.1009168 Eh            2.7461 eV
             Fermi-level           -0.3081068 Eh           -8.3840 eV

 SCC (total)                   0 d,  0 h,  0 min, 11.924 sec
 SCC setup                      ...        0 min,  0.026 sec (  0.219%)
 Dispersion                     ...        0 min,  0.170 sec (  1.423%)
 classical contributions        ...        0 min,  0.006 sec (  0.051%)
 integral evaluation            ...        0 min,  0.457 sec (  3.832%)
 iterations                     ...        0 min, 10.590 sec ( 88.813%)
 molecular gradient             ...        0 min,  0.660 sec (  5.533%)
 printout                       ...        0 min,  0.015 sec (  0.128%)

         :::::::::::::::::::::::::::::::::::::::::::::::::::::
         ::                     SUMMARY                     ::
         :::::::::::::::::::::::::::::::::::::::::::::::::::::
         :: total energy            -173.500900874844 Eh    ::
         :: gradient norm              0.374492818286 Eh/a0 ::
         :: HOMO-LUMO gap              2.746085833569 eV    ::
         ::.................................................::
         :: SCC energy              -175.533814494070 Eh    ::
         :: -> isotropic ES            0.334052312555 Eh    ::
         :: -> anisotropic ES          0.014569156730 Eh    ::
         :: -> anisotropic XC          0.081047342489 Eh    ::
         :: -> dispersion             -0.134514467211 Eh    ::
         :: repulsion energy           2.032913619226 Eh    ::
         :: add. restraining           0.000000000000 Eh    ::
         :: total charge              -0.000000000000 e     ::
         :::::::::::::::::::::::::::::::::::::::::::::::::::::

           -------------------------------------------------
          |                Property Printout                |
           -------------------------------------------------

    * Orbital Energies and Occupations

         #    Occupation            Energy/Eh            Energy/eV
      -------------------------------------------------------------
         1        2.0000           -0.7141945             -19.4342
       ...           ...                  ...                  ...
       143        2.0000           -0.3982393             -10.8366
       144        2.0000           -0.3919966             -10.6668
       145        2.0000           -0.3902306             -10.6187
       146        2.0000           -0.3879427             -10.5565
       147        2.0000           -0.3841154             -10.4523
       148        2.0000           -0.3811545             -10.3717
       149        2.0000           -0.3792642             -10.3203
       150        2.0000           -0.3786624             -10.3039
       151        2.0000           -0.3776483             -10.2763
       152        2.0000           -0.3676346             -10.0038
       153        2.0000           -0.3627722              -9.8715
       154        2.0000           -0.3615062              -9.8371
       155        2.0000           -0.3585652              -9.7571 (HOMO)
       156                         -0.2576484              -7.0110 (LUMO)
       157                         -0.2474559              -6.7336
       158                         -0.2460029              -6.6941
       159                         -0.2392138              -6.5093
       160                         -0.2370403              -6.4502
       161                         -0.2292422              -6.2380
       162                         -0.2241329              -6.0990
       163                         -0.2152148              -5.8563
       164                         -0.1894134              -5.1542
       165                         -0.1784542              -4.8560
       166                         -0.1326816              -3.6105
       ...                                ...                  ...
       283                          0.6402223              17.4213
      -------------------------------------------------------------
                  HL-Gap            0.1009168 Eh            2.7461 eV
             Fermi-level           -0.3081068 Eh           -8.3840 eV

     #   Z          covCN         q      C6AA      α(0)
     1   7 N        2.683    -0.227    25.955     7.567
     2   6 C        3.782     0.013    20.369     6.429
     3   6 C        2.751     0.266    22.510     7.769
     4   8 O        0.856    -0.443    22.568     6.369
     5   7 N        2.690    -0.186    25.027     7.430
     6   6 C        3.794     0.019    20.261     6.410
     7   6 C        2.755     0.267    22.498     7.767
     8   6 C        3.832     0.037    19.938     6.353
     9   8 O        0.860    -0.396    21.603     6.232
    10   7 N        2.693    -0.184    24.984     7.424
    11   6 C        3.819    -0.066    21.755     6.638
    12   6 C        2.752     0.272    22.400     7.750
    13   6 C        2.971     0.012    27.755     8.642
    14   6 C        3.767     0.011    20.435     6.443
    15   8 O        0.857    -0.406    21.794     6.259
    16   6 C        2.901    -0.044    29.102     8.845
    17   6 C        2.903    -0.046    29.131     8.850
    18   7 N        2.689    -0.197    25.275     7.467
    19   6 C        3.786    -0.064    21.738     6.641
    20   6 C        2.929    -0.038    28.954     8.824
    21   6 C        2.938    -0.034    28.840     8.807
    22   6 C        2.746     0.256    22.690     7.800
    23   6 C        3.799    -0.064    21.728     6.637
    24   6 C        2.897    -0.027    28.674     8.780
    25   6 C        3.780     0.032    20.049     6.379
    26   8 O        0.861    -0.403    21.732     6.250
    27   6 C        3.711     0.012    20.498     6.470
    28   7 N        2.671    -0.251    26.535     7.651
    29   6 C        3.788    -0.054    21.550     6.612
    30   7 N        2.682    -0.234    26.124     7.591
    31   6 C        2.740     0.281    22.247     7.723
    32   6 C        3.791    -0.072    21.889     6.663
    33   6 C        2.732     0.223    23.309     7.904
    34   6 C        3.819     0.029    20.080     6.377
    35   8 O        0.856    -0.361    20.914     6.131
    36   6 C        3.710     0.025    20.293     6.438
    37   7 N        1.793    -0.424    32.031     8.383
    38   7 N        2.655    -0.335    28.618     7.945
    39   7 N        2.752    -0.083    22.852     7.100
    40   6 C        3.816    -0.061    21.659     6.624
    41   7 N        2.680    -0.214    25.670     7.525
    42   6 C        3.716    -0.009    20.869     6.526
    43   6 C        2.772     0.256    22.686     7.801
    44   6 C        3.824    -0.063    21.692     6.628
    45   6 C        2.727     0.215    23.457     7.929
    46   8 O        0.857    -0.453    22.772     6.398
    47   7 N        1.774    -0.413    31.700     8.338
    48   7 N        2.636    -0.296    27.642     7.808
    49   6 C        3.708     0.116    18.821     6.201
    50   8 O        1.658    -0.435    21.548     6.266
    51   6 C        3.717    -0.112    22.769     6.816
    52   6 C        3.768    -0.081    22.076     6.696
    53   6 C        3.775    -0.068    21.837     6.658
    54   6 C        3.804    -0.057    21.599     6.616
    55   6 C        3.742     0.023    20.256     6.421
    56   7 N        2.623    -0.352    29.059     8.006
    57   1 H        0.861     0.172     1.259     1.757
    58   1 H        0.923     0.078     1.996     2.210
    59   1 H        0.856     0.196     1.125     1.662
    60   1 H        0.927     0.072     2.058     2.244
    61   1 H        0.929     0.097     1.809     2.103
    62   1 H        0.860     0.192     1.150     1.680
    63   1 H        0.917     0.029     2.606     2.525
    64   1 H        0.925     0.059     2.217     2.328
    65   1 H        0.925     0.088     1.895     2.152
    66   1 H        0.920     0.025     2.653     2.547
    67   1 H        0.921     0.036     2.499     2.472
    68   1 H        0.861     0.168     1.287     1.777
    69   1 H        0.911     0.039     2.461     2.454
    70   1 H        0.926     0.047     2.356     2.400
    71   1 H        0.929     0.050     2.320     2.382
    72   1 H        0.929     0.043     2.406     2.425
    73   1 H        0.926     0.060     2.201     2.320
    74   1 H        0.924     0.053     2.286     2.364
    75   1 H        0.921     0.035     2.512     2.479
    76   1 H        0.922     0.054     2.273     2.358
    77   1 H        0.925     0.049     2.335     2.390
    78   1 H        0.906     0.031     2.578     2.512
    79   1 H        0.860     0.166     1.297     1.784
    80   1 H        0.908     0.010     2.888     2.658
    81   1 H        0.920     0.079     1.988     2.205
    82   1 H        0.862     0.165     1.301     1.787
    83   1 H        0.919     0.067     2.123     2.279
    84   1 H        0.921     0.042     2.417     2.431
    85   1 H        0.922     0.082     1.958     2.189
    86   1 H        0.927     0.037     2.495     2.470
    87   1 H        0.898     0.006     2.959     2.692
    88   1 H        0.860     0.122     1.608     1.986
    89   1 H        0.861     0.163     1.317     1.798
    90   1 H        0.862     0.203     1.092     1.637
    91   1 H        0.927     0.055     2.259     2.350
    92   1 H        0.926     0.054     2.272     2.357
    93   1 H        0.858     0.154     1.375     1.837
    94   1 H        0.921     0.070     2.086     2.259
    95   1 H        0.922     0.058     2.217     2.329
    96   1 H        0.927     0.056     2.252     2.347
    97   1 H        0.924     0.052     2.294     2.369
    98   1 H        0.861     0.135     1.510     1.925
    99   1 H        0.859     0.159     1.345     1.817
   100   1 H        0.862     0.183     1.195     1.712
   101   1 H        0.912     0.046     2.369     2.407
   102   1 H        0.808     0.302     0.713     1.326
   103   1 H        0.913     0.061     2.191     2.315
   104   1 H        0.920     0.053     2.279     2.361
   105   1 H        0.906     0.032     2.559     2.503
   106   1 H        0.926     0.045     2.378     2.412
   107   1 H        0.918     0.058     2.227     2.334
   108   1 H        0.922     0.060     2.204     2.322
   109   1 H        0.926     0.052     2.291     2.367
   110   1 H        0.924     0.050     2.320     2.382
   111   1 H        0.921     0.032     2.553     2.499
   112   1 H        0.928     0.042     2.418     2.432
   113   1 H        0.922     0.001     3.046     2.730
   114   1 H        0.861     0.137     1.491     1.913
   115   1 H        0.854     0.125     1.587     1.974

 Mol. C6AA /au·bohr⁶  :     125564.205463
 Mol. C8AA /au·bohr⁸  :    2796292.151678
 Mol. α(0) /au        :        534.038541


Wiberg/Mayer (AO) data.
largest (>0.10) Wiberg bond orders for each atom

 ---------------------------------------------------------------------------
     #   Z sym  total        # sym  WBO       # sym  WBO       # sym  WBO
 ---------------------------------------------------------------------------
     1   7 N    3.365 --     7 C    1.168     2 C    0.983    57 H    0.927
                             9 O    0.188
     2   6 C    3.961 --     1 N    0.983     3 C    0.950    58 H    0.945
                            49 C    0.934
     3   6 C    3.950 --     4 O    1.661     5 N    1.254     2 C    0.950
     4   8 O    1.979 --     3 C    1.661     5 N    0.184
     5   7 N    3.415 --     3 C    1.254     6 C    0.982    59 H    0.908
                             4 O    0.184
     6   6 C    3.965 --     5 N    0.982    52 C    0.980    60 H    0.955
                            43 C    0.930
     7   6 C    3.950 --     9 O    1.743     1 N    1.168     8 C    0.953
     8   6 C    3.977 --    10 N    0.996    11 C    0.971     7 C    0.953
                            61 H    0.927
     9   8 O    2.051 --     7 C    1.743     1 N    0.188
    10   7 N    3.383 --    12 C    1.208     8 C    0.996    62 H    0.920
                            15 O    0.176
    11   6 C    3.993 --    13 C    1.024     8 C    0.971    63 H    0.959
                            64 H    0.958
    12   6 C    3.934 --    15 O    1.741    10 N    1.208    14 C    0.894
    13   6 C    3.988 --    16 C    1.487    17 C    1.328    11 C    1.024
                            24 C    0.100
    14   6 C    3.956 --    18 N    1.001    19 C    0.980    65 H    0.944
                            12 C    0.894
    15   8 O    2.050 --    12 C    1.741    10 N    0.176
    16   6 C    3.985 --    13 C    1.487    20 C    1.353    66 H    0.964
                            21 C    0.109
    17   6 C    3.987 --    21 C    1.507    13 C    1.328    67 H    0.965
                            20 C    0.117
    18   7 N    3.409 --    22 C    1.199    14 C    1.001    68 H    0.935
                            26 O    0.184
    19   6 C    3.992 --    23 C    1.008    14 C    0.980    70 H    0.978
                            69 H    0.972
    20   6 C    3.991 --    24 C    1.512    16 C    1.353    71 H    0.974
                            17 C    0.117
    21   6 C    3.994 --    17 C    1.507    24 C    1.374    72 H    0.973
                            16 C    0.109
    22   6 C    3.938 --    26 O    1.731    18 N    1.199    25 C    0.921
    23   6 C    3.992 --    19 C    1.008    27 C    0.995    74 H    0.974
                            73 H    0.971
    24   6 C    3.987 --    20 C    1.512    21 C    1.374    75 H    0.967
                            13 C    0.100
    25   6 C    3.974 --    29 C    1.007    28 N    0.966    76 H    0.932
                            22 C    0.921
    26   8 O    2.044 --    22 C    1.731    18 N    0.184
    27   6 C    3.969 --    23 C    0.995    30 N    0.993    77 H    0.974
                            78 H    0.964
    28   7 N    3.192 --    31 C    1.061    25 C    0.966    79 H    0.948
                            35 O    0.122
    29   6 C    3.986 --    25 C    1.007    32 C    0.997    81 H    0.964
                            80 H    0.952
    30   7 N    3.313 --    33 C    1.141    27 C    0.993    82 H    0.949
                            37 N    0.155
    31   6 C    3.930 --    35 O    1.817    28 N    1.061    34 C    0.966
    32   6 C    3.987 --    36 C    1.001    29 C    0.997    84 H    0.975
                            83 H    0.968
    33   6 C    3.961 --    37 N    1.697    30 N    1.141    38 N    1.094
    34   6 C    3.971 --    40 C    0.969    39 N    0.968    31 C    0.966
                            85 H    0.939
    35   8 O    2.076 --    31 C    1.817    28 N    0.122
    36   6 C    3.980 --    41 N    1.027    32 C    1.001    86 H    0.965
                            87 H    0.937
    37   7 N    2.949 --    33 C    1.697    88 H    0.953    30 N    0.155
    38   7 N    3.151 --    33 C    1.094    89 H    0.955    90 H    0.936
    39   7 N    3.486 --    43 C    1.259    42 C    0.983    34 C    0.968
                            46 O    0.185
    40   6 C    3.993 --    44 C    1.011    91 H    0.979    92 H    0.977
                            34 C    0.969
    41   7 N    3.316 --    45 C    1.094    36 C    1.027    93 H    0.943
                            47 N    0.156
    42   6 C    3.960 --    44 C    0.983    39 N    0.983    94 H    0.966
                            95 H    0.963
    43   6 C    3.946 --    46 O    1.658    39 N    1.259     6 C    0.930
    44   6 C    3.992 --    40 C    1.011    42 C    0.983    97 H    0.983
                            96 H    0.981
    45   6 C    3.951 --    47 N    1.689    48 N    1.136    41 N    1.094
    46   8 O    1.994 --    43 C    1.658    39 N    0.185
    47   7 N    2.949 --    45 C    1.689    98 H    0.949    41 N    0.156
                            48 N    0.112
    48   7 N    3.231 --    45 C    1.136    99 H    0.956   100 H    0.954
                            47 N    0.112
    49   6 C    3.956 --    51 C    1.016    50 O    1.003   101 H    0.956
                             2 C    0.934
    50   8 O    1.974 --    49 C    1.003   102 H    0.893
    51   6 C    3.991 --    49 C    1.016   104 H    0.980   103 H    0.978
                           105 H    0.968
    52   6 C    3.981 --     6 C    0.980    53 C    0.980   106 H    0.978
                           107 H    0.968
    53   6 C    3.989 --    54 C    1.013    52 C    0.980   109 H    0.979
                           108 H    0.978
    54   6 C    3.996 --    55 C    1.014    53 C    1.013   111 H    0.971
                           110 H    0.964
    55   6 C    3.985 --    54 C    1.014    56 N    1.006   112 H    0.977
                           113 H    0.971
    56   7 N    2.979 --    55 C    1.006   115 H    0.970   114 H    0.968
    57   1 H    0.970 --     1 N    0.927
    58   1 H    0.994 --     2 C    0.945
    59   1 H    0.961 --     5 N    0.908
    60   1 H    0.995 --     6 C    0.955
    61   1 H    0.990 --     8 C    0.927
    62   1 H    0.963 --    10 N    0.920
    63   1 H    0.998 --    11 C    0.959
    64   1 H    0.996 --    11 C    0.958
    65   1 H    0.992 --    14 C    0.944
    66   1 H    0.999 --    16 C    0.964
    67   1 H    0.999 --    17 C    0.965
    68   1 H    0.972 --    18 N    0.935
    69   1 H    0.998 --    19 C    0.972
    70   1 H    0.998 --    19 C    0.978
    71   1 H    0.997 --    20 C    0.974
    72   1 H    0.998 --    21 C    0.973
    73   1 H    0.996 --    23 C    0.971
    74   1 H    0.997 --    23 C    0.974
    75   1 H    0.998 --    24 C    0.967
    76   1 H    0.997 --    25 C    0.932
    77   1 H    0.998 --    27 C    0.974
    78   1 H    0.999 --    27 C    0.964
    79   1 H    0.972 --    28 N    0.948
    80   1 H    1.000 --    29 C    0.952
    81   1 H    0.993 --    29 C    0.964
    82   1 H    0.973 --    30 N    0.949
    83   1 H    0.995 --    32 C    0.968
    84   1 H    0.998 --    32 C    0.975
    85   1 H    0.993 --    34 C    0.939
    86   1 H    0.999 --    36 C    0.965
    87   1 H    1.000 --    36 C    0.937
    88   1 H    0.985 --    37 N    0.953
    89   1 H    0.973 --    38 N    0.955
    90   1 H    0.959 --    38 N    0.936
    91   1 H    0.997 --    40 C    0.979
    92   1 H    0.997 --    40 C    0.977
    93   1 H    0.976 --    41 N    0.943
    94   1 H    0.995 --    42 C    0.966
    95   1 H    0.996 --    42 C    0.963
    96   1 H    0.996 --    44 C    0.981
    97   1 H    0.997 --    44 C    0.983
    98   1 H    0.982 --    47 N    0.949
    99   1 H    0.975 --    48 N    0.956
   100   1 H    0.966 --    48 N    0.954
   101   1 H    0.997 --    49 C    0.956
   102   1 H    0.908 --    50 O    0.893
   103   1 H    0.996 --    51 C    0.978
   104   1 H    0.997 --    51 C    0.980
   105   1 H    0.999 --    51 C    0.968
   106   1 H    0.998 --    52 C    0.978
   107   1 H    0.996 --    52 C    0.968
   108   1 H    0.996 --    53 C    0.978
   109   1 H    0.997 --    53 C    0.979
   110   1 H    0.997 --    54 C    0.964
   111   1 H    0.999 --    54 C    0.971
   112   1 H    0.998 --    55 C    0.977
   113   1 H    1.000 --    55 C    0.971
   114   1 H    0.981 --    56 N    0.968
   115   1 H    0.984 --    56 N    0.970
 ---------------------------------------------------------------------------

Topologies differ in total number of bonds
Writing topology from bond orders to xtbtopo.mol

molecular dipole:
                 x           y           z       tot (Debye)
 q only:        1.709      -0.578      -2.517
   full:        2.428      -0.959      -2.829       9.785
molecular quadrupole (traceless):
                xx          xy          yy          xz          yz          zz
 q only:      -36.102      13.460      48.918      -1.045      17.197     -12.816
  q+dip:      -53.053       6.565      64.109     -11.349      23.264     -11.056
   full:      -54.350       7.751      64.261     -10.689      25.192      -9.911


           -------------------------------------------------
          | TOTAL ENERGY             -173.500900874844 Eh   |
          | GRADIENT NORM               0.374492818286 Eh/α |
          | HOMO-LUMO GAP               2.746085833569 eV   |
           -------------------------------------------------

------------------------------------------------------------------------
 * finished run on 2026/05/23 at 12:28:08.230     
------------------------------------------------------------------------
 total:
 * wall-time:     0 d,  0 h,  0 min, 12.975 sec
 *  cpu-time:     0 d,  0 h,  0 min, 20.054 sec
 * ratio c/w:     1.546 speedup
 SCF:
 * wall-time:     0 d,  0 h,  0 min, 11.926 sec
 *  cpu-time:     0 d,  0 h,  0 min, 18.988 sec
 * ratio c/w:     1.592 speedup

normal termination of xtb
