      -----------------------------------------------------------      
     |                   =====================                   |     
     |                           x T B                           |     
     |                   =====================                   |     
     |                         S. Grimme                         |     
     |          Mulliken Center for Theoretical Chemistry        |     
     |                    University of Bonn                     |     
      -----------------------------------------------------------      

   * xtb version 6.7.1 (edcfbbe) compiled by 'albert@albert-system' on 2024-07-22

   xtb is free software: you can redistribute it and/or modify it under
   the terms of the GNU Lesser General Public License as published by
   the Free Software Foundation, either version 3 of the License, or
   (at your option) any later version.
   
   xtb is distributed in the hope that it will be useful,
   but WITHOUT ANY WARRANTY; without even the implied warranty of
   MERCHANTABILITY or FITNESS FOR A PARTICULAR PURPOSE.  See the
   GNU Lesser General Public License for more details.
   
   Cite this work as:
   * C. Bannwarth, E. Caldeweyher, S. Ehlert, A. Hansen, P. Pracht,
     J. Seibert, S. Spicher, S. Grimme, WIREs Comput. Mol. Sci., 2020, 11,
     e01493. DOI: 10.1002/wcms.1493
   
   for GFN2-xTB:
   * C. Bannwarth, S. Ehlert and S. Grimme., J. Chem. Theory Comput., 2019,
     15, 1652-1671. DOI: 10.1021/acs.jctc.8b01176
   for GFN1-xTB:
   * S. Grimme, C. Bannwarth, P. Shushkov, J. Chem. Theory Comput., 2017,
     13, 1989-2009. DOI: 10.1021/acs.jctc.7b00118
   for GFN0-xTB:
   * P. Pracht, E. Caldeweyher, S. Ehlert, S. Grimme, ChemRxiv, 2019, preprint.
     DOI: 10.26434/chemrxiv.8326202.v1
   for GFN-FF:
   * S. Spicher and S. Grimme, Angew. Chem. Int. Ed., 2020, 59, 15665-15673.
     DOI: 10.1002/anie.202004239
   
   for ALPB and GBSA implicit solvation:
   * S. Ehlert, M. Stahn, S. Spicher, S. Grimme, J. Chem. Theory Comput.,
     2021, 17, 4250-4261. DOI: 10.1021/acs.jctc.1c00471
   
   for ddCOSMO and CPCM-X implicit solvation:
   * M. Stahn, S. Ehlert, S. Grimme, J. Phys. Chem. A,
     2023, XX, XXXX-XXXX. DOI: 10.1021/acs.jpca.3c04382
   
   for DFT-D4:
   * E. Caldeweyher, C. Bannwarth and S. Grimme, J. Chem. Phys., 2017,
     147, 034112. DOI: 10.1063/1.4993215
   * E. Caldeweyher, S. Ehlert, A. Hansen, H. Neugebauer, S. Spicher,
     C. Bannwarth and S. Grimme, J. Chem. Phys., 2019, 150, 154122.
     DOI: 10.1063/1.5090222
   * E. Caldeweyher, J.-M. Mewes, S. Ehlert and S. Grimme, Phys. Chem. Chem. Phys.
     2020, 22, 8499-8512. DOI: 10.1039/D0CP00502A
   
   for sTDA-xTB:
   * S. Grimme and C. Bannwarth, J. Chem. Phys., 2016, 145, 054103.
     DOI: 10.1063/1.4959605
   
   in the mass-spec context:
   * V. Asgeirsson, C. Bauer and S. Grimme, Chem. Sci., 2017, 8, 4879.
     DOI: 10.1039/c7sc00601b
   * J. Koopman and S. Grimme, ACS Omega 2019, 4, 12, 15120-15133.
     DOI: 10.1021/acsomega.9b02011
   
   for metadynamics refer to:
   * S. Grimme, J. Chem. Theory Comput., 2019, 155, 2847-2862
     DOI: 10.1021/acs.jctc.9b00143
   
   for SPH calculations refer to:
   * S. Spicher and S. Grimme, J. Chem. Theory Comput., 2021, 17, 1701-1714
     DOI: 10.1021/acs.jctc.0c01306
   
   for ONIOM refer to:
   * C. Plett, A. Katbashev, S. Ehlert, S. Grimme, M. Bursch,
     Phys. Chem. Chem. Phys., 2023, 25, 17860-17868. DOI: 10.1039/D3CP02178E
   
   for DIPRO refer to:
   * J. Kohn, N. Gildemeister, S. Grimme, D. Fazzi, A. Hansen,
     J. Chem. Phys., 2023, just accepted.
   
   for PTB refer to:
   * S. Grimme, M. Mueller, A. Hansen, J. Chem. Phys., 2023, 158, 124111.
     DOI: 10.1063/5.0137838
   
   with help from (in alphabetical order)
   P. Atkinson, C. Bannwarth, F. Bohle, G. Brandenburg, E. Caldeweyher
   M. Checinski, S. Dohm, S. Ehlert, S. Ehrlich, I. Gerasimov, C. Hölzer
   A. Katbashev, J. Kohn, J. Koopman, C. Lavigne, S. Lehtola, F. März, M. Müller,
   F. Musil, H. Neugebauer, J. Pisarek, C. Plett, P. Pracht, F. Pultar,
   J. Seibert, P. Shushkov, S. Spicher, M. Stahn, M. Steiner, T. Strunk,
   J. Stückrath, T. Rose, and J. Unsleber
   
 * started run on 2026/05/23 at 12:27:35.334     
   ID    Z sym.   atoms
    1    7 N      1, 5, 10, 17, 22, 26, 27, 33, 41
    2    6 C      2, 3, 6-8, 11-14, 16, 18-21, 23, 28-30, 34-39
    3    8 O      4, 9, 15, 24, 25, 31, 32, 40
    4    1 H      42-82

           -------------------------------------------------
          |                Calculation Setup                |
           -------------------------------------------------

          program call               : /home/xchen/software/xtb-6.7.1/xtb-dist/bin/xtb /home/xchen/Test/benchmark/md_sampled/09_5_0584_0/snap_0035.xyz --charge 0 --gfn 2 --norestart
          coordinate file            : /home/xchen/Test/benchmark/md_sampled/09_5_0584_0/snap_0035.xyz
          omp threads                :                    48


           -------------------------------------------------
          |                 G F N 2 - x T B                 |
           -------------------------------------------------

        Reference                      10.1021/acs.jctc.8b01176
      * Hamiltonian:
        H0-scaling (s, p, d)           1.850000    2.230000    2.230000
        zeta-weighting                 0.500000
      * Dispersion:
        s8                             2.700000
        a1                             0.520000
        a2                             5.000000
        s9                             5.000000
      * Repulsion:
        kExp                           1.500000    1.000000
        rExp                           1.000000
      * Coulomb:
        alpha                          2.000000
        third order                    shell-resolved
        anisotropic                    true
        a3                             3.000000
        a5                             4.000000
        cn-shift                       1.200000
        cn-exp                         4.000000
        max-rad                        5.000000


          ...................................................
          :                      SETUP                      :
          :.................................................:
          :  # basis functions                 205          :
          :  # atomic orbitals                 205          :
          :  # shells                          123          :
          :  # electrons                       230          :
          :  max. iterations                   250          :
          :  Hamiltonian                  GFN2-xTB          :
          :  restarted?                      false          :
          :  GBSA solvation                  false          :
          :  PC potential                    false          :
          :  electronic temp.          300.0000000     K    :
          :  accuracy                    1.0000000          :
          :  -> integral cutoff          0.2500000E+02      :
          :  -> integral neglect         0.1000000E-07      :
          :  -> SCF convergence          0.1000000E-05 Eh   :
          :  -> wf. convergence          0.1000000E-03 e    :
          :  Broyden damping             0.4000000          :
          :  net charge                          0          :
          :  unpaired electrons                  0          :
          ...................................................

 iter      E             dE          RMSdq      gap      omega  full diag
   1   -132.0864818 -0.132086E+03  0.422E+00    3.78       0.0  T
   2   -132.4491884 -0.362707E+00  0.220E+00    3.10       1.0  T
   3   -132.4653743 -0.161860E-01  0.124E+00    3.30       1.0  T
   4   -132.4683726 -0.299828E-02  0.244E-01    2.79       1.0  T
   5   -132.4721180 -0.374541E-02  0.936E-02    2.90       1.0  T
   6   -132.4721628 -0.448000E-04  0.397E-02    2.89       1.0  T
   7   -132.4721729 -0.100389E-04  0.138E-02    2.90       1.0  T
   8   -132.4721774 -0.451478E-05  0.521E-03    2.89       2.1  T
   9   -132.4721777 -0.319110E-06  0.198E-03    2.89       5.6  T
  10   -132.4721777 -0.303352E-07  0.757E-04    2.89      14.6  T
  11   -132.4721777 -0.129459E-07  0.256E-04    2.89      43.1  T

   *** convergence criteria satisfied after 11 iterations ***

         #    Occupation            Energy/Eh            Energy/eV
      -------------------------------------------------------------
         1        2.0000           -0.7275289             -19.7971
       ...           ...                  ...                  ...
       109        2.0000           -0.4106133             -11.1734
       110        2.0000           -0.4062055             -11.0534
       111        2.0000           -0.4046487             -11.0111
       112        2.0000           -0.4028168             -10.9612
       113        2.0000           -0.3962730             -10.7831
       114        2.0000           -0.3884986             -10.5716
       115        2.0000           -0.3680964             -10.0164 (HOMO)
       116                         -0.2618043              -7.1241 (LUMO)
       117                         -0.2514380              -6.8420
       118                         -0.2455770              -6.6825
       119                         -0.2415907              -6.5740
       120                         -0.2332278              -6.3465
       ...                                ...                  ...
       205                          0.8159263              22.2025
      -------------------------------------------------------------
                  HL-Gap            0.1062921 Eh            2.8924 eV
             Fermi-level           -0.3149504 Eh           -8.5702 eV

 SCC (total)                   0 d,  0 h,  0 min,  9.443 sec
 SCC setup                      ...        0 min,  0.043 sec (  0.453%)
 Dispersion                     ...        0 min,  0.093 sec (  0.983%)
 classical contributions        ...        0 min,  0.008 sec (  0.084%)
 integral evaluation            ...        0 min,  0.669 sec (  7.081%)
 iterations                     ...        0 min,  7.937 sec ( 84.048%)
 molecular gradient             ...        0 min,  0.685 sec (  7.252%)
 printout                       ...        0 min,  0.009 sec (  0.097%)

         :::::::::::::::::::::::::::::::::::::::::::::::::::::
         ::                     SUMMARY                     ::
         :::::::::::::::::::::::::::::::::::::::::::::::::::::
         :: total energy            -131.077006399372 Eh    ::
         :: gradient norm              0.315833813860 Eh/a0 ::
         :: HOMO-LUMO gap              2.892354563072 eV    ::
         ::.................................................::
         :: SCC energy              -132.469272289836 Eh    ::
         :: -> isotropic ES            0.314775637127 Eh    ::
         :: -> anisotropic ES          0.013288792699 Eh    ::
         :: -> anisotropic XC          0.042808266847 Eh    ::
         :: -> dispersion             -0.089512712745 Eh    ::
         :: repulsion energy           1.392265890464 Eh    ::
         :: add. restraining           0.000000000000 Eh    ::
         :: total charge              -0.000000000000 e     ::
         :::::::::::::::::::::::::::::::::::::::::::::::::::::

           -------------------------------------------------
          |                Property Printout                |
           -------------------------------------------------

    * Orbital Energies and Occupations

         #    Occupation            Energy/Eh            Energy/eV
      -------------------------------------------------------------
         1        2.0000           -0.7275289             -19.7971
       ...           ...                  ...                  ...
       103        2.0000           -0.4314413             -11.7401
       104        2.0000           -0.4282359             -11.6529
       105        2.0000           -0.4223367             -11.4924
       106        2.0000           -0.4214718             -11.4688
       107        2.0000           -0.4144671             -11.2782
       108        2.0000           -0.4132300             -11.2446
       109        2.0000           -0.4106133             -11.1734
       110        2.0000           -0.4062055             -11.0534
       111        2.0000           -0.4046487             -11.0111
       112        2.0000           -0.4028168             -10.9612
       113        2.0000           -0.3962730             -10.7831
       114        2.0000           -0.3884986             -10.5716
       115        2.0000           -0.3680964             -10.0164 (HOMO)
       116                         -0.2618043              -7.1241 (LUMO)
       117                         -0.2514380              -6.8420
       118                         -0.2455770              -6.6825
       119                         -0.2415907              -6.5740
       120                         -0.2332278              -6.3465
       121                         -0.2293629              -6.2413
       122                         -0.2269108              -6.1746
       123                         -0.2062682              -5.6128
       124                         -0.0838251              -2.2810
       125                         -0.0693218              -1.8863
       126                         -0.0635752              -1.7300
       ...                                ...                  ...
       205                          0.8159263              22.2025
      -------------------------------------------------------------
                  HL-Gap            0.1062921 Eh            2.8924 eV
             Fermi-level           -0.3149504 Eh           -8.5702 eV

     #   Z          covCN         q      C6AA      α(0)
     1   7 N        2.686    -0.185    25.014     7.428
     2   6 C        3.788     0.029    20.104     6.386
     3   6 C        2.745     0.264    22.549     7.775
     4   8 O        0.856    -0.401    21.698     6.245
     5   7 N        2.679    -0.211    25.591     7.513
     6   6 C        3.763     0.028    20.140     6.397
     7   6 C        2.768     0.261    22.595     7.785
     8   6 C        3.798     0.024    20.166     6.394
     9   8 O        0.858    -0.456    22.822     6.405
    10   7 N        2.683    -0.171    24.698     7.381
    11   6 C        3.795    -0.071    21.870     6.659
    12   6 C        2.760     0.276    22.325     7.738
    13   6 C        3.785    -0.060    21.667     6.630
    14   6 C        3.794     0.015    20.332     6.421
    15   8 O        0.859    -0.427    22.230     6.321
    16   6 C        3.797    -0.067    21.792     6.647
    17   7 N        2.680    -0.170    24.673     7.377
    18   6 C        3.788    -0.093    22.286     6.724
    19   6 C        3.714     0.007    20.589     6.483
    20   6 C        2.748     0.272    22.398     7.749
    21   6 C        2.743     0.277    22.307     7.733
    22   7 N        2.622    -0.346    28.926     7.988
    23   6 C        3.765     0.022    20.236     6.412
    24   8 O        0.859    -0.440    22.494     6.359
    25   8 O        0.861    -0.431    22.310     6.333
    26   7 N        2.631    -0.268    26.932     7.707
    27   7 N        2.686    -0.184    24.999     7.426
    28   6 C        3.778    -0.092    22.280     6.725
    29   6 C        2.732     0.248    22.842     7.825
    30   6 C        2.743     0.291    22.059     7.690
    31   8 O        0.862    -0.429    22.261     6.326
    32   8 O        0.858    -0.379    21.260     6.182
    33   7 N        2.633    -0.309    27.954     7.852
    34   6 C        3.852    -0.011    20.745     6.478
    35   6 C        3.738    -0.105    22.585     6.781
    36   6 C        3.730    -0.098    22.476     6.768
    37   6 C        3.800    -0.083    22.083     6.691
    38   6 C        3.799    -0.102    22.443     6.745
    39   6 C        2.742     0.305    21.813     7.647
    40   8 O        0.860    -0.377    21.232     6.178
    41   7 N        2.634    -0.301    27.765     7.826
    42   1 H        0.862     0.198     1.116     1.654
    43   1 H        0.922     0.069     2.095     2.263
    44   1 H        0.859     0.185     1.184     1.704
    45   1 H        0.921     0.068     2.109     2.271
    46   1 H        0.921     0.094     1.843     2.123
    47   1 H        0.855     0.200     1.105     1.647
    48   1 H        0.924     0.038     2.476     2.461
    49   1 H        0.914     0.055     2.259     2.351
    50   1 H        0.921     0.042     2.420     2.433
    51   1 H        0.922     0.036     2.510     2.478
    52   1 H        0.925     0.082     1.958     2.188
    53   1 H        0.928     0.053     2.287     2.365
    54   1 H        0.920     0.034     2.530     2.488
    55   1 H        0.860     0.198     1.116     1.655
    56   1 H        0.917     0.089     1.887     2.149
    57   1 H        0.921     0.063     2.161     2.299
    58   1 H        0.909     0.021     2.725     2.582
    59   1 H        0.928     0.047     2.355     2.400
    60   1 H        0.861     0.147     1.420     1.867
    61   1 H        0.858     0.135     1.511     1.926
    62   1 H        0.921     0.101     1.779     2.086
    63   1 H        0.854     0.198     1.118     1.657
    64   1 H        0.859     0.170     1.273     1.768
    65   1 H        0.861     0.204     1.087     1.633
    66   1 H        0.926     0.069     2.093     2.262
    67   1 H        0.908     0.080     1.979     2.201
    68   1 H        0.860     0.175     1.245     1.748
    69   1 H        0.859     0.184     1.194     1.712
    70   1 H        0.927     0.076     2.021     2.223
    71   1 H        0.922     0.031     2.575     2.510
    72   1 H        0.910     0.023     2.688     2.565
    73   1 H        0.924     0.052     2.298     2.371
    74   1 H        0.914     0.024     2.678     2.560
    75   1 H        0.910     0.045     2.387     2.417
    76   1 H        0.925     0.038     2.476     2.461
    77   1 H        0.926     0.060     2.195     2.317
    78   1 H        0.927     0.072     2.058     2.243
    79   1 H        0.925     0.071     2.079     2.255
    80   1 H        0.925     0.075     2.032     2.229
    81   1 H        0.858     0.174     1.250     1.752
    82   1 H        0.859     0.170     1.270     1.766

 Mol. C6AA /au·bohr⁶  :      63059.108839
 Mol. C8AA /au·bohr⁸  :    1391137.756174
 Mol. α(0) /au        :        374.169102


Wiberg/Mayer (AO) data.
largest (>0.10) Wiberg bond orders for each atom

 ---------------------------------------------------------------------------
     #   Z sym  total        # sym  WBO       # sym  WBO       # sym  WBO
 ---------------------------------------------------------------------------
     1   7 N    3.419 --     7 C    1.259     2 C    0.966    42 H    0.925
                             9 O    0.183
     2   6 C    3.965 --    34 C    0.974     1 N    0.966    43 H    0.947
                             3 C    0.945
     3   6 C    3.942 --     4 O    1.726     5 N    1.185     2 C    0.945
     4   8 O    2.052 --     3 C    1.726     5 N    0.182
     5   7 N    3.370 --     3 C    1.185     6 C    0.982    44 H    0.930
                             4 O    0.182
     6   6 C    3.959 --    37 C    0.991     5 N    0.982    45 H    0.964
                            29 C    0.889
     7   6 C    3.951 --     9 O    1.650     1 N    1.259     8 C    0.955
     8   6 C    3.963 --    10 N    0.987    11 C    0.962     7 C    0.955
                            46 H    0.927
     9   8 O    1.959 --     7 C    1.650     1 N    0.183
    10   7 N    3.444 --    12 C    1.282     8 C    0.987    47 H    0.905
                            15 O    0.194
    11   6 C    3.985 --    13 C    0.990    48 H    0.977    49 H    0.971
                             8 C    0.962
    12   6 C    3.958 --    15 O    1.690    10 N    1.282    14 C    0.906
    13   6 C    3.993 --    16 C    1.016    11 C    0.990    51 H    0.976
                            50 H    0.974
    14   6 C    3.952 --    17 N    0.969    18 C    0.966    52 H    0.952
                            12 C    0.906
    15   8 O    2.016 --    12 C    1.690    10 N    0.194
    16   6 C    3.993 --    13 C    1.016    19 C    1.001    53 H    0.974
                            54 H    0.951
    17   7 N    3.442 --    20 C    1.272    14 C    0.969    55 H    0.932
                            24 O    0.192
    18   6 C    3.991 --    21 C    0.991    14 C    0.966    57 H    0.959
                            56 H    0.955
    19   6 C    3.969 --    22 N    1.011    16 C    1.001    59 H    0.974
                            58 H    0.962
    20   6 C    3.942 --    24 O    1.686    17 N    1.272    23 C    0.909
    21   6 C    3.950 --    25 O    1.690    26 N    1.237    18 C    0.991
    22   7 N    2.992 --    19 C    1.011    60 H    0.969    61 H    0.967
    23   6 C    3.954 --    27 N    0.985    28 C    0.958    62 H    0.950
                            20 C    0.909
    24   8 O    2.010 --    20 C    1.686    17 N    0.192
    25   8 O    1.996 --    21 C    1.690    26 N    0.202
    26   7 N    3.363 --    21 C    1.237    64 H    0.948    63 H    0.938
                            25 O    0.202
    27   7 N    3.420 --    29 C    1.255    23 C    0.985    65 H    0.911
                            31 O    0.186
    28   6 C    3.988 --    30 C    0.974    66 H    0.972    23 C    0.958
                            67 H    0.950
    29   6 C    3.938 --    31 O    1.712    27 N    1.255     6 C    0.889
    30   6 C    3.943 --    32 O    1.790    33 N    1.146    28 C    0.974
    31   8 O    2.023 --    29 C    1.712    27 N    0.186
    32   8 O    2.076 --    30 C    1.790    33 N    0.173
    33   7 N    3.247 --    30 C    1.146    69 H    0.946    68 H    0.945
                            32 O    0.173
    34   6 C    3.988 --    36 C    1.001    35 C    0.996     2 C    0.974
                            70 H    0.957
    35   6 C    3.987 --    34 C    0.996    71 H    0.985    72 H    0.985
                            73 H    0.983
    36   6 C    3.988 --    34 C    1.001    76 H    0.986    75 H    0.984
                            74 H    0.981
    37   6 C    3.985 --     6 C    0.991    38 C    0.986    77 H    0.972
                            78 H    0.965
    38   6 C    3.991 --    37 C    0.986    80 H    0.973    39 C    0.969
                            79 H    0.954
    39   6 C    3.945 --    40 O    1.786    41 N    1.163    38 C    0.969
    40   8 O    2.092 --    39 C    1.786    41 N    0.194
    41   7 N    3.292 --    39 C    1.163    82 H    0.950    81 H    0.949
                            40 O    0.194
    42   1 H    0.961 --     1 N    0.925
    43   1 H    0.995 --     2 C    0.947
    44   1 H    0.965 --     5 N    0.930
    45   1 H    0.995 --     6 C    0.964
    46   1 H    0.991 --     8 C    0.927
    47   1 H    0.960 --    10 N    0.905
    48   1 H    0.998 --    11 C    0.977
    49   1 H    0.996 --    11 C    0.971
    50   1 H    0.998 --    13 C    0.974
    51   1 H    0.999 --    13 C    0.976
    52   1 H    0.993 --    14 C    0.952
    53   1 H    0.997 --    16 C    0.974
    54   1 H    0.999 --    16 C    0.951
    55   1 H    0.961 --    17 N    0.932
    56   1 H    0.992 --    18 C    0.955
    57   1 H    0.996 --    18 C    0.959
    58   1 H    1.000 --    19 C    0.962
    59   1 H    0.998 --    19 C    0.974
    60   1 H    0.978 --    22 N    0.969
    61   1 H    0.982 --    22 N    0.967
    62   1 H    0.990 --    23 C    0.950
    63   1 H    0.960 --    26 N    0.938
    64   1 H    0.971 --    26 N    0.948
    65   1 H    0.958 --    27 N    0.911
    66   1 H    0.995 --    28 C    0.972
    67   1 H    0.993 --    28 C    0.950
    68   1 H    0.969 --    33 N    0.945
    69   1 H    0.966 --    33 N    0.946
    70   1 H    0.994 --    34 C    0.957
    71   1 H    0.999 --    35 C    0.985
    72   1 H    0.999 --    35 C    0.985
    73   1 H    0.997 --    35 C    0.983
    74   1 H    0.999 --    36 C    0.981
    75   1 H    0.998 --    36 C    0.984
    76   1 H    0.998 --    36 C    0.986
    77   1 H    0.996 --    37 C    0.972
    78   1 H    0.995 --    37 C    0.965
    79   1 H    0.995 --    38 C    0.954
    80   1 H    0.994 --    38 C    0.973
    81   1 H    0.970 --    41 N    0.949
    82   1 H    0.971 --    41 N    0.950
 ---------------------------------------------------------------------------

Topologies differ in total number of bonds
Writing topology from bond orders to xtbtopo.mol

molecular dipole:
                 x           y           z       tot (Debye)
 q only:       -1.626       1.070      -2.493
   full:       -1.782       1.594      -2.547       8.881
molecular quadrupole (traceless):
                xx          xy          yy          xz          yz          zz
 q only:       -7.562     -26.261      11.597     -22.378      -0.927      -4.035
  q+dip:      -22.714     -30.812      19.446     -35.580      -4.374       3.268
   full:      -23.352     -31.297      20.116     -34.891      -4.073       3.236


           -------------------------------------------------
          | TOTAL ENERGY             -131.077006399372 Eh   |
          | GRADIENT NORM               0.315833813860 Eh/α |
          | HOMO-LUMO GAP               2.892354563072 eV   |
           -------------------------------------------------

------------------------------------------------------------------------
 * finished run on 2026/05/23 at 12:27:45.434     
------------------------------------------------------------------------
 total:
 * wall-time:     0 d,  0 h,  0 min, 10.098 sec
 *  cpu-time:     0 d,  0 h,  0 min, 14.088 sec
 * ratio c/w:     1.395 speedup
 SCF:
 * wall-time:     0 d,  0 h,  0 min,  9.443 sec
 *  cpu-time:     0 d,  0 h,  0 min, 13.616 sec
 * ratio c/w:     1.442 speedup

normal termination of xtb
