      -----------------------------------------------------------      
     |                   =====================                   |     
     |                           x T B                           |     
     |                   =====================                   |     
     |                         S. Grimme                         |     
     |          Mulliken Center for Theoretical Chemistry        |     
     |                    University of Bonn                     |     
      -----------------------------------------------------------      

   * xtb version 6.7.1 (edcfbbe) compiled by 'albert@albert-system' on 2024-07-22

   xtb is free software: you can redistribute it and/or modify it under
   the terms of the GNU Lesser General Public License as published by
   the Free Software Foundation, either version 3 of the License, or
   (at your option) any later version.
   
   xtb is distributed in the hope that it will be useful,
   but WITHOUT ANY WARRANTY; without even the implied warranty of
   MERCHANTABILITY or FITNESS FOR A PARTICULAR PURPOSE.  See the
   GNU Lesser General Public License for more details.
   
   Cite this work as:
   * C. Bannwarth, E. Caldeweyher, S. Ehlert, A. Hansen, P. Pracht,
     J. Seibert, S. Spicher, S. Grimme, WIREs Comput. Mol. Sci., 2020, 11,
     e01493. DOI: 10.1002/wcms.1493
   
   for GFN2-xTB:
   * C. Bannwarth, S. Ehlert and S. Grimme., J. Chem. Theory Comput., 2019,
     15, 1652-1671. DOI: 10.1021/acs.jctc.8b01176
   for GFN1-xTB:
   * S. Grimme, C. Bannwarth, P. Shushkov, J. Chem. Theory Comput., 2017,
     13, 1989-2009. DOI: 10.1021/acs.jctc.7b00118
   for GFN0-xTB:
   * P. Pracht, E. Caldeweyher, S. Ehlert, S. Grimme, ChemRxiv, 2019, preprint.
     DOI: 10.26434/chemrxiv.8326202.v1
   for GFN-FF:
   * S. Spicher and S. Grimme, Angew. Chem. Int. Ed., 2020, 59, 15665-15673.
     DOI: 10.1002/anie.202004239
   
   for ALPB and GBSA implicit solvation:
   * S. Ehlert, M. Stahn, S. Spicher, S. Grimme, J. Chem. Theory Comput.,
     2021, 17, 4250-4261. DOI: 10.1021/acs.jctc.1c00471
   
   for ddCOSMO and CPCM-X implicit solvation:
   * M. Stahn, S. Ehlert, S. Grimme, J. Phys. Chem. A,
     2023, XX, XXXX-XXXX. DOI: 10.1021/acs.jpca.3c04382
   
   for DFT-D4:
   * E. Caldeweyher, C. Bannwarth and S. Grimme, J. Chem. Phys., 2017,
     147, 034112. DOI: 10.1063/1.4993215
   * E. Caldeweyher, S. Ehlert, A. Hansen, H. Neugebauer, S. Spicher,
     C. Bannwarth and S. Grimme, J. Chem. Phys., 2019, 150, 154122.
     DOI: 10.1063/1.5090222
   * E. Caldeweyher, J.-M. Mewes, S. Ehlert and S. Grimme, Phys. Chem. Chem. Phys.
     2020, 22, 8499-8512. DOI: 10.1039/D0CP00502A
   
   for sTDA-xTB:
   * S. Grimme and C. Bannwarth, J. Chem. Phys., 2016, 145, 054103.
     DOI: 10.1063/1.4959605
   
   in the mass-spec context:
   * V. Asgeirsson, C. Bauer and S. Grimme, Chem. Sci., 2017, 8, 4879.
     DOI: 10.1039/c7sc00601b
   * J. Koopman and S. Grimme, ACS Omega 2019, 4, 12, 15120-15133.
     DOI: 10.1021/acsomega.9b02011
   
   for metadynamics refer to:
   * S. Grimme, J. Chem. Theory Comput., 2019, 155, 2847-2862
     DOI: 10.1021/acs.jctc.9b00143
   
   for SPH calculations refer to:
   * S. Spicher and S. Grimme, J. Chem. Theory Comput., 2021, 17, 1701-1714
     DOI: 10.1021/acs.jctc.0c01306
   
   for ONIOM refer to:
   * C. Plett, A. Katbashev, S. Ehlert, S. Grimme, M. Bursch,
     Phys. Chem. Chem. Phys., 2023, 25, 17860-17868. DOI: 10.1039/D3CP02178E
   
   for DIPRO refer to:
   * J. Kohn, N. Gildemeister, S. Grimme, D. Fazzi, A. Hansen,
     J. Chem. Phys., 2023, just accepted.
   
   for PTB refer to:
   * S. Grimme, M. Mueller, A. Hansen, J. Chem. Phys., 2023, 158, 124111.
     DOI: 10.1063/5.0137838
   
   with help from (in alphabetical order)
   P. Atkinson, C. Bannwarth, F. Bohle, G. Brandenburg, E. Caldeweyher
   M. Checinski, S. Dohm, S. Ehlert, S. Ehrlich, I. Gerasimov, C. Hölzer
   A. Katbashev, J. Kohn, J. Koopman, C. Lavigne, S. Lehtola, F. März, M. Müller,
   F. Musil, H. Neugebauer, J. Pisarek, C. Plett, P. Pracht, F. Pultar,
   J. Seibert, P. Shushkov, S. Spicher, M. Stahn, M. Steiner, T. Strunk,
   J. Stückrath, T. Rose, and J. Unsleber
   
 * started run on 2026/05/23 at 12:49:33.181     
   ID    Z sym.   atoms
    1    7 N      1, 5, 13, 19, 23, 28, 35
    2    6 C      2, 3, 6-10, 12, 14, 15, 17, 20, 21, 24-26, 29, 30, 32, 33,
                  36, 37, 39, 41-44
    3    8 O      4, 11, 18, 22, 27, 31, 34, 38, 40
    4   16 S      16
    5    1 H      45-89

           -------------------------------------------------
          |                Calculation Setup                |
           -------------------------------------------------

          program call               : /home/xchen/software/xtb-6.7.1/xtb-dist/bin/xtb /home/xchen/Test/benchmark/md_sampled/06_7_0793_0/snap_0181.xyz --charge 0 --gfn 2 --norestart
          coordinate file            : /home/xchen/Test/benchmark/md_sampled/06_7_0793_0/snap_0181.xyz
          omp threads                :                    48


           -------------------------------------------------
          |                 G F N 2 - x T B                 |
           -------------------------------------------------

        Reference                      10.1021/acs.jctc.8b01176
      * Hamiltonian:
        H0-scaling (s, p, d)           1.850000    2.230000    2.230000
        zeta-weighting                 0.500000
      * Dispersion:
        s8                             2.700000
        a1                             0.520000
        a2                             5.000000
        s9                             5.000000
      * Repulsion:
        kExp                           1.500000    1.000000
        rExp                           1.000000
      * Coulomb:
        alpha                          2.000000
        third order                    shell-resolved
        anisotropic                    true
        a3                             3.000000
        a5                             4.000000
        cn-shift                       1.200000
        cn-exp                         4.000000
        max-rad                        5.000000


          ...................................................
          :                      SETUP                      :
          :.................................................:
          :  # basis functions                 227          :
          :  # atomic orbitals                 226          :
          :  # shells                          134          :
          :  # electrons                       248          :
          :  max. iterations                   250          :
          :  Hamiltonian                  GFN2-xTB          :
          :  restarted?                      false          :
          :  GBSA solvation                  false          :
          :  PC potential                    false          :
          :  electronic temp.          300.0000000     K    :
          :  accuracy                    1.0000000          :
          :  -> integral cutoff          0.2500000E+02      :
          :  -> integral neglect         0.1000000E-07      :
          :  -> SCF convergence          0.1000000E-05 Eh   :
          :  -> wf. convergence          0.1000000E-03 e    :
          :  Broyden damping             0.4000000          :
          :  net charge                          0          :
          :  unpaired electrons                  0          :
          ...................................................

 iter      E             dE          RMSdq      gap      omega  full diag
   1   -142.1821823 -0.142182E+03  0.415E+00    3.33       0.0  T
   2   -142.5733239 -0.391142E+00  0.224E+00    3.11       1.0  T
   3   -142.5901130 -0.167891E-01  0.119E+00    3.47       1.0  T
   4   -142.5943047 -0.419170E-02  0.215E-01    3.29       1.0  T
   5   -142.5962469 -0.194219E-02  0.108E-01    3.37       1.0  T
   6   -142.5963504 -0.103503E-03  0.327E-02    3.36       1.0  T
   7   -142.5963601 -0.975686E-05  0.136E-02    3.37       1.0  T
   8   -142.5963624 -0.221012E-05  0.569E-03    3.36       1.9  T
   9   -142.5963628 -0.464000E-06  0.188E-03    3.36       5.6  T
  10   -142.5963629 -0.432103E-07  0.864E-04    3.36      12.3  T
  11   -142.5963629 -0.130628E-07  0.276E-04    3.36      38.4  T

   *** convergence criteria satisfied after 11 iterations ***

         #    Occupation            Energy/Eh            Energy/eV
      -------------------------------------------------------------
         1        2.0000           -0.7292756             -19.8446
       ...           ...                  ...                  ...
       118        2.0000           -0.4054869             -11.0339
       119        2.0000           -0.4047982             -11.0151
       120        2.0000           -0.4034632             -10.9788
       121        2.0000           -0.3998508             -10.8805
       122        2.0000           -0.3920875             -10.6692
       123        2.0000           -0.3817960             -10.3892
       124        2.0000           -0.3811987             -10.3729 (HOMO)
       125                         -0.2575570              -7.0085 (LUMO)
       126                         -0.2522340              -6.8636
       127                         -0.2483314              -6.7574
       128                         -0.2291072              -6.2343
       129                         -0.2274898              -6.1903
       ...                                ...                  ...
       226                          0.6658639              18.1191
      -------------------------------------------------------------
                  HL-Gap            0.1236416 Eh            3.3645 eV
             Fermi-level           -0.3193779 Eh           -8.6907 eV

 SCC (total)                   0 d,  0 h,  0 min, 11.924 sec
 SCC setup                      ...        0 min,  0.026 sec (  0.219%)
 Dispersion                     ...        0 min,  0.097 sec (  0.815%)
 classical contributions        ...        0 min,  0.014 sec (  0.115%)
 integral evaluation            ...        0 min,  0.655 sec (  5.495%)
 iterations                     ...        0 min, 10.159 sec ( 85.200%)
 molecular gradient             ...        0 min,  0.959 sec (  8.041%)
 printout                       ...        0 min,  0.013 sec (  0.113%)

         :::::::::::::::::::::::::::::::::::::::::::::::::::::
         ::                     SUMMARY                     ::
         :::::::::::::::::::::::::::::::::::::::::::::::::::::
         :: total energy            -141.042651365931 Eh    ::
         :: gradient norm              0.352046099772 Eh/a0 ::
         :: HOMO-LUMO gap              3.364460484588 eV    ::
         ::.................................................::
         :: SCC energy              -142.590758465728 Eh    ::
         :: -> isotropic ES            0.327642822730 Eh    ::
         :: -> anisotropic ES          0.005092119492 Eh    ::
         :: -> anisotropic XC          0.039163849014 Eh    ::
         :: -> dispersion             -0.105537533295 Eh    ::
         :: repulsion energy           1.548107099797 Eh    ::
         :: add. restraining           0.000000000000 Eh    ::
         :: total charge              -0.000000000000 e     ::
         :::::::::::::::::::::::::::::::::::::::::::::::::::::

           -------------------------------------------------
          |                Property Printout                |
           -------------------------------------------------

    * Orbital Energies and Occupations

         #    Occupation            Energy/Eh            Energy/eV
      -------------------------------------------------------------
         1        2.0000           -0.7292756             -19.8446
       ...           ...                  ...                  ...
       112        2.0000           -0.4336028             -11.7989
       113        2.0000           -0.4301363             -11.7046
       114        2.0000           -0.4278245             -11.6417
       115        2.0000           -0.4173734             -11.3573
       116        2.0000           -0.4141637             -11.2700
       117        2.0000           -0.4115112             -11.1978
       118        2.0000           -0.4054869             -11.0339
       119        2.0000           -0.4047982             -11.0151
       120        2.0000           -0.4034632             -10.9788
       121        2.0000           -0.3998508             -10.8805
       122        2.0000           -0.3920875             -10.6692
       123        2.0000           -0.3817960             -10.3892
       124        2.0000           -0.3811987             -10.3729 (HOMO)
       125                         -0.2575570              -7.0085 (LUMO)
       126                         -0.2522340              -6.8636
       127                         -0.2483314              -6.7574
       128                         -0.2291072              -6.2343
       129                         -0.2274898              -6.1903
       130                         -0.2199460              -5.9850
       131                         -0.2171016              -5.9076
       132                         -0.2141841              -5.8282
       133                         -0.1428524              -3.8872
       134                         -0.0894684              -2.4346
       135                         -0.0664112              -1.8071
       ...                                ...                  ...
       226                          0.6658639              18.1191
      -------------------------------------------------------------
                  HL-Gap            0.1236416 Eh            3.3645 eV
             Fermi-level           -0.3193779 Eh           -8.6907 eV

     #   Z          covCN         q      C6AA      α(0)
     1   7 N        2.744    -0.122    23.641     7.221
     2   6 C        3.820     0.017    20.268     6.407
     3   6 C        2.755     0.272    22.398     7.750
     4   8 O        0.860    -0.451    22.728     6.392
     5   7 N        2.711    -0.160    24.461     7.346
     6   6 C        3.806     0.021    20.216     6.401
     7   6 C        3.769    -0.002    20.643     6.475
     8   6 C        2.777     0.266    22.508     7.771
     9   6 C        3.807    -0.059    21.637     6.622
    10   6 C        3.819     0.044    19.828     6.337
    11   8 O        0.859    -0.461    22.934     6.421
    12   6 C        3.845    -0.062    21.662     6.621
    13   7 N        2.699    -0.200    25.342     7.477
    14   6 C        3.814    -0.017    20.875     6.503
    15   6 C        2.785     0.271    22.428     7.757
    16  16 S        1.896    -0.244   151.515    20.718
    17   6 C        3.758    -0.024    21.050     6.541
    18   8 O        0.858    -0.417    22.025     6.292
    19   7 N        2.713    -0.176    24.810     7.398
    20   6 C        2.796     0.273    22.390     7.751
    21   6 C        3.812     0.021    20.205     6.398
    22   8 O        0.863    -0.427    22.233     6.322
    23   7 N        2.696    -0.152    24.297     7.321
    24   6 C        3.749    -0.121    22.894     6.824
    25   6 C        2.783     0.259    22.637     7.793
    26   6 C        3.828     0.009    20.399     6.427
    27   8 O        0.862    -0.452    22.754     6.396
    28   7 N        2.698    -0.184    24.976     7.422
    29   6 C        3.733     0.094    19.115     6.240
    30   6 C        2.776     0.271    22.414     7.754
    31   8 O        1.624    -0.455    21.955     6.324
    32   6 C        3.758    -0.126    22.972     6.833
    33   6 C        3.779    -0.006    20.707     6.483
    34   8 O        0.860    -0.429    22.262     6.326
    35   7 N        2.691    -0.170    24.690     7.380
    36   6 C        3.706     0.105    18.988     6.229
    37   6 C        2.748     0.276    22.327     7.737
    38   8 O        1.647    -0.468    22.212     6.362
    39   6 C        3.730    -0.115    22.796     6.816
    40   8 O        0.858    -0.467    23.072     6.440
    41   6 C        3.858    -0.013    20.763     6.480
    42   6 C        3.739    -0.118    22.835     6.818
    43   6 C        3.788    -0.051    21.495     6.603
    44   6 C        3.738    -0.102    22.541     6.775
    45   1 H        0.927     0.090     1.878     2.143
    46   1 H        0.861     0.193     1.142     1.674
    47   1 H        0.921     0.069     2.097     2.264
    48   1 H        0.921     0.058     2.222     2.331
    49   1 H        0.922     0.050     2.318     2.381
    50   1 H        0.919     0.051     2.312     2.378
    51   1 H        0.918     0.047     2.354     2.400
    52   1 H        0.924     0.069     2.097     2.265
    53   1 H        0.927     0.069     2.092     2.262
    54   1 H        0.924     0.047     2.353     2.399
    55   1 H        0.852     0.201     1.104     1.646
    56   1 H        0.915     0.078     2.001     2.212
    57   1 H        0.922     0.049     2.327     2.386
    58   1 H        0.919     0.149     1.399     1.850
    59   1 H        0.924     0.079     1.987     2.204
    60   1 H        0.925     0.089     1.887     2.148
    61   1 H        0.861     0.197     1.121     1.659
    62   1 H        0.925     0.081     1.964     2.192
    63   1 H        0.860     0.210     1.055     1.609
    64   1 H        0.925     0.076     2.018     2.221
    65   1 H        0.911     0.037     2.488     2.467
    66   1 H        0.924     0.043     2.406     2.425
    67   1 H        0.929     0.109     1.707     2.043
    68   1 H        0.861     0.219     1.013     1.577
    69   1 H        0.929     0.055     2.253     2.347
    70   1 H        0.788     0.286     0.767     1.377
    71   1 H        0.925     0.038     2.471     2.458
    72   1 H        0.929     0.065     2.140     2.287
    73   1 H        0.928     0.067     2.116     2.275
    74   1 H        0.928     0.080     1.980     2.200
    75   1 H        0.858     0.205     1.084     1.631
    76   1 H        0.925     0.063     2.160     2.298
    77   1 H        0.801     0.317     0.673     1.289
    78   1 H        0.909     0.047     2.356     2.401
    79   1 H        0.920     0.055     2.258     2.350
    80   1 H        0.927     0.052     2.295     2.369
    81   1 H        0.922     0.026     2.638     2.540
    82   1 H        0.927     0.065     2.140     2.288
    83   1 H        0.909     0.033     2.551     2.499
    84   1 H        0.928     0.046     2.371     2.408
    85   1 H        0.926     0.052     2.296     2.369
    86   1 H        0.903     0.023     2.691     2.567
    87   1 H        0.927     0.048     2.344     2.394
    88   1 H        0.916     0.036     2.505     2.475
    89   1 H        0.920     0.026     2.644     2.543

 Mol. C6AA /au·bohr⁶  :      76672.005837
 Mol. C8AA /au·bohr⁸  :    1764806.628006
 Mol. α(0) /au        :        413.205245


Wiberg/Mayer (AO) data.
largest (>0.10) Wiberg bond orders for each atom

 ---------------------------------------------------------------------------
     #   Z sym  total        # sym  WBO       # sym  WBO       # sym  WBO
 ---------------------------------------------------------------------------
     1   7 N    3.482 --     8 C    1.262     7 C    0.962     2 C    0.942
                            11 O    0.188
     2   6 C    3.958 --    12 C    0.973     3 C    0.955    45 H    0.951
                             1 N    0.942
     3   6 C    3.961 --     4 O    1.646     5 N    1.287     2 C    0.955
     4   8 O    1.972 --     3 C    1.646     5 N    0.201
     5   7 N    3.474 --     3 C    1.287     6 C    0.995    46 H    0.890
                             4 O    0.201
     6   6 C    3.966 --     5 N    0.995    37 C    0.958    47 H    0.947
                            41 C    0.928
     7   6 C    3.968 --     9 C    1.010    49 H    0.970    48 H    0.968
                             1 N    0.962
     8   6 C    3.955 --    11 O    1.645     1 N    1.262    10 C    0.943
     9   6 C    3.992 --     7 C    1.010    12 C    1.004    50 H    0.976
                            51 H    0.973
    10   6 C    3.977 --    13 N    0.999    14 C    0.979     8 C    0.943
                            52 H    0.937
    11   8 O    1.967 --     8 C    1.645     1 N    0.188
    12   6 C    3.989 --     9 C    1.004    54 H    0.976    53 H    0.975
                             2 C    0.973
    13   7 N    3.349 --    15 C    1.184    10 C    0.999    55 H    0.908
                            18 O    0.175
    14   6 C    3.968 --    16 S    0.985    10 C    0.979    57 H    0.971
                            56 H    0.961
    15   6 C    3.945 --    18 O    1.730    13 N    1.184    17 C    0.943
    16  16 S    2.009 --    14 C    0.985    58 H    0.960
    17   6 C    3.960 --    19 N    0.997    59 H    0.963    60 H    0.960
                            15 C    0.943
    18   8 O    2.026 --    15 C    1.730    13 N    0.175
    19   7 N    3.422 --    20 C    1.216    17 C    0.997    61 H    0.932
                            22 O    0.174
    20   6 C    3.948 --    22 O    1.674    19 N    1.216    21 C    0.959
    21   6 C    3.971 --    23 N    1.054    20 C    0.959    62 H    0.935
                            24 C    0.911
    22   8 O    2.031 --    20 C    1.674    19 N    0.174
    23   7 N    3.491 --    25 C    1.271    21 C    1.054    63 H    0.888
                            27 O    0.189
    24   6 C    3.984 --    66 H    0.989    65 H    0.985    64 H    0.980
                            21 C    0.911
    25   6 C    3.955 --    27 O    1.648    23 N    1.271    26 C    0.929
    26   6 C    3.966 --    28 N    0.998    29 C    0.979    67 H    0.939
                            25 C    0.929
    27   8 O    1.975 --    25 C    1.648    23 N    0.189
    28   7 N    3.444 --    30 C    1.257    26 C    0.998    68 H    0.893
                            34 O    0.199
    29   6 C    3.958 --    32 C    0.999    26 C    0.979    69 H    0.965
                            31 O    0.964
    30   6 C    3.957 --    34 O    1.688    28 N    1.257    33 C    0.934
    31   8 O    1.925 --    29 C    0.964    70 H    0.901
    32   6 C    3.989 --    29 C    0.999    73 H    0.986    72 H    0.983
                            71 H    0.974
    33   6 C    3.954 --    35 N    0.958    36 C    0.956    74 H    0.951
                            30 C    0.934
    34   8 O    2.011 --    30 C    1.688    28 N    0.199
    35   7 N    3.460 --    37 C    1.303    33 C    0.958    75 H    0.921
                            40 O    0.197
    36   6 C    3.954 --    39 C    1.002    38 O    0.996    76 H    0.963
                            33 C    0.956
    37   6 C    3.955 --    40 O    1.611    35 N    1.303     6 C    0.958
    38   8 O    1.972 --    36 C    0.996    77 H    0.856
    39   6 C    3.991 --    36 C    1.002    80 H    0.984    79 H    0.984
                            78 H    0.979
    40   8 O    1.971 --    37 C    1.611    35 N    0.197
    41   6 C    3.989 --    43 C    1.024    42 C    0.993    81 H    0.966
                             6 C    0.928
    42   6 C    3.989 --    41 C    0.993    83 H    0.987    84 H    0.986
                            82 H    0.982
    43   6 C    3.995 --    41 C    1.024    44 C    1.008    85 H    0.969
                            86 H    0.953
    44   6 C    3.988 --    43 C    1.008    87 H    0.988    89 H    0.987
                            88 H    0.983
    45   1 H    0.991 --     2 C    0.951
    46   1 H    0.963 --     5 N    0.890
    47   1 H    0.995 --     6 C    0.947
    48   1 H    0.996 --     7 C    0.968
    49   1 H    0.997 --     7 C    0.970
    50   1 H    0.997 --     9 C    0.976
    51   1 H    0.996 --     9 C    0.973
    52   1 H    0.995 --    10 C    0.937
    53   1 H    0.995 --    12 C    0.975
    54   1 H    0.998 --    12 C    0.976
    55   1 H    0.960 --    13 N    0.908
    56   1 H    0.994 --    14 C    0.961
    57   1 H    0.997 --    14 C    0.971
    58   1 H    0.978 --    16 S    0.960
    59   1 H    0.993 --    17 C    0.963
    60   1 H    0.992 --    17 C    0.960
    61   1 H    0.961 --    19 N    0.932
    62   1 H    0.993 --    21 C    0.935
    63   1 H    0.956 --    23 N    0.888
    64   1 H    0.994 --    24 C    0.980
    65   1 H    0.998 --    24 C    0.985
    66   1 H    0.998 --    24 C    0.989
    67   1 H    0.988 --    26 C    0.939
    68   1 H    0.952 --    28 N    0.893
    69   1 H    0.996 --    29 C    0.965
    70   1 H    0.918 --    31 O    0.901
    71   1 H    0.999 --    32 C    0.974
    72   1 H    0.996 --    32 C    0.983
    73   1 H    0.995 --    32 C    0.986
    74   1 H    0.993 --    33 C    0.951
    75   1 H    0.958 --    35 N    0.921
    76   1 H    0.996 --    36 C    0.963
    77   1 H    0.900 --    38 O    0.856
    78   1 H    0.998 --    39 C    0.979
    79   1 H    0.996 --    39 C    0.984
    80   1 H    0.997 --    39 C    0.984
    81   1 H    0.999 --    41 C    0.966
    82   1 H    0.996 --    42 C    0.982
    83   1 H    0.998 --    42 C    0.987
    84   1 H    0.998 --    42 C    0.986
    85   1 H    0.997 --    43 C    0.969
    86   1 H    0.999 --    43 C    0.953
    87   1 H    0.997 --    44 C    0.988
    88   1 H    0.999 --    44 C    0.983
    89   1 H    0.999 --    44 C    0.987
 ---------------------------------------------------------------------------

Topologies differ in total number of bonds
Writing topology from bond orders to xtbtopo.mol

molecular dipole:
                 x           y           z       tot (Debye)
 q only:        2.468      -0.506       1.940
   full:        2.862      -0.326       1.661       8.451
molecular quadrupole (traceless):
                xx          xy          yy          xz          yz          zz
 q only:       12.971       4.852      23.772     -14.264      -6.733     -36.743
  q+dip:       10.250       6.104      33.059     -16.103      -8.827     -43.309
   full:       10.709       5.285      32.999     -15.236      -9.151     -43.708


           -------------------------------------------------
          | TOTAL ENERGY             -141.042651365931 Eh   |
          | GRADIENT NORM               0.352046099772 Eh/α |
          | HOMO-LUMO GAP               3.364460484588 eV   |
           -------------------------------------------------

------------------------------------------------------------------------
 * finished run on 2026/05/23 at 12:49:45.650     
------------------------------------------------------------------------
 total:
 * wall-time:     0 d,  0 h,  0 min, 12.468 sec
 *  cpu-time:     0 d,  0 h,  0 min, 20.410 sec
 * ratio c/w:     1.637 speedup
 SCF:
 * wall-time:     0 d,  0 h,  0 min, 11.925 sec
 *  cpu-time:     0 d,  0 h,  0 min, 19.668 sec
 * ratio c/w:     1.649 speedup

normal termination of xtb
