      -----------------------------------------------------------      
     |                   =====================                   |     
     |                           x T B                           |     
     |                   =====================                   |     
     |                         S. Grimme                         |     
     |          Mulliken Center for Theoretical Chemistry        |     
     |                    University of Bonn                     |     
      -----------------------------------------------------------      

   * xtb version 6.7.1 (26dd68d) compiled by 'froitzheim@fs7' on 2026-05-14

   xtb is free software: you can redistribute it and/or modify it under
   the terms of the GNU Lesser General Public License as published by
   the Free Software Foundation, either version 3 of the License, or
   (at your option) any later version.
   
   xtb is distributed in the hope that it will be useful,
   but WITHOUT ANY WARRANTY; without even the implied warranty of
   MERCHANTABILITY or FITNESS FOR A PARTICULAR PURPOSE.  See the
   GNU Lesser General Public License for more details.
   
   Cite this work as:
   * C. Bannwarth, E. Caldeweyher, S. Ehlert, A. Hansen, P. Pracht,
     J. Seibert, S. Spicher, S. Grimme, WIREs Comput. Mol. Sci., 2020, 11,
     e01493. DOI: 10.1002/wcms.1493
   
   for g-xTB:
   * T. Froitzheim, M. Müller, A. Hansen, S. Grimme, ChemRxiv, 2025, preprint.
     DOI: 10.26434/chemrxiv-2025-bjxv
   for GFN2-xTB:
   * C. Bannwarth, S. Ehlert and S. Grimme., J. Chem. Theory Comput., 2019,
     15, 1652-1671. DOI: 10.1021/acs.jctc.8b01176
   for GFN1-xTB:
   * S. Grimme, C. Bannwarth, P. Shushkov, J. Chem. Theory Comput., 2017,
     13, 1989-2009. DOI: 10.1021/acs.jctc.7b00118
   for GFN0-xTB:
   * P. Pracht, E. Caldeweyher, S. Ehlert, S. Grimme, ChemRxiv, 2019, preprint.
     DOI: 10.26434/chemrxiv.8326202.v1
   for GFN-FF:
   * S. Spicher and S. Grimme, Angew. Chem. Int. Ed., 2020, 59, 15665-15673.
     DOI: 10.1002/anie.202004239
   
   for ALPB and GBSA implicit solvation:
   * S. Ehlert, M. Stahn, S. Spicher, S. Grimme, J. Chem. Theory Comput.,
     2021, 17, 4250-4261. DOI: 10.1021/acs.jctc.1c00471
   
   for ddCOSMO and CPCM-X implicit solvation:
   * M. Stahn, S. Ehlert, S. Grimme, J. Phys. Chem. A,
     2023, XX, XXXX-XXXX. DOI: 10.1021/acs.jpca.3c04382
   
   for DFT-D4:
   * E. Caldeweyher, C. Bannwarth and S. Grimme, J. Chem. Phys., 2017,
     147, 034112. DOI: 10.1063/1.4993215
   * E. Caldeweyher, S. Ehlert, A. Hansen, H. Neugebauer, S. Spicher,
     C. Bannwarth and S. Grimme, J. Chem. Phys., 2019, 150, 154122.
     DOI: 10.1063/1.5090222
   * E. Caldeweyher, J.-M. Mewes, S. Ehlert and S. Grimme, Phys. Chem. Chem. Phys.
     2020, 22, 8499-8512. DOI: 10.1039/D0CP00502A
   
   for sTDA-xTB:
   * S. Grimme and C. Bannwarth, J. Chem. Phys., 2016, 145, 054103.
     DOI: 10.1063/1.4959605
   
   in the mass-spec context:
   * V. Asgeirsson, C. Bauer and S. Grimme, Chem. Sci., 2017, 8, 4879.
     DOI: 10.1039/c7sc00601b
   * J. Koopman and S. Grimme, ACS Omega 2019, 4, 12, 15120-15133.
     DOI: 10.1021/acsomega.9b02011
   
   for metadynamics refer to:
   * S. Grimme, J. Chem. Theory Comput., 2019, 155, 2847-2862
     DOI: 10.1021/acs.jctc.9b00143
   
   for SPH calculations refer to:
   * S. Spicher and S. Grimme, J. Chem. Theory Comput., 2021, 17, 1701-1714
     DOI: 10.1021/acs.jctc.0c01306
   
   for ONIOM refer to:
   * C. Plett, A. Katbashev, S. Ehlert, S. Grimme, M. Bursch,
     Phys. Chem. Chem. Phys., 2023, 25, 17860-17868. DOI: 10.1039/D3CP02178E
   
   for DIPRO refer to:
   * J. Kohn, N. Gildemeister, S. Grimme, D. Fazzi, A. Hansen,
     J. Chem. Phys. 159, 144106 (2023). DOI: 10.1063/5.0167484
   
   for PTB refer to:
   * S. Grimme, M. Mueller, A. Hansen, J. Chem. Phys., 2023, 158, 124111.
     DOI: 10.1063/5.0137838
   
   with help from (in alphabetical order)
   P. Atkinson, C. Bannwarth, F. Bohle, G. Brandenburg, E. Caldeweyher,
   M. Checinski, S. Dohm, S. Ehlert, S. Ehrlich, M. Friede, T. Froitzheim,
   I. Gerasimov, C. Hölzer, A. Katbashev, J. Kohn, J. Koopman, C. Lavigne,
   S. Lehtola, F. März, M. Müller, F. Musil, H. Neugebauer, J. Pisarek,
   C. Plett, P. Pracht, F. Pultar, J. Seibert, P. Shushkov, S. Spicher,
   M. Stahn, M. Steiner, T. Strunk, J. Stückrath, T. Rose, and J. Unsleber
   
 * started run on 2026/05/23 at 08:19:06.685     
   ID    Z sym.   atoms
    1    7 N      1, 5, 10, 17, 23, 28, 35
    2    6 C      2, 3, 6-8, 11-14, 16, 20, 21, 24-26, 29, 31-34, 36-40
    3    8 O      4, 9, 15, 18, 19, 22, 27, 30
    4    1 H      41-70

           -------------------------------------------------
          |                Calculation Setup                |
           -------------------------------------------------

          program call               : /home/xchen/software/xtb-6.7.1-gxtb/bin/xtb /home/xchen/Test/benchmark/md_sampled/01_6_0109_n1/snap_0196.xyz --charge -1 --gxtb --norestart
          coordinate file            : /home/xchen/Test/benchmark/md_sampled/01_6_0109_n1/snap_0196.xyz
          omp threads                :                    48

core increment energy         -1.7791297691186E+03 Eh
dispersion energy              1.0417909189972E-02 Eh
molecular charge              -1.0000000000000E+00 e
number of electrons            2.1399999999800E+02 e
number of unpaired electrons   0.0000000000000E+00 e
wavefunction                   restricted
integral cutoff                2.6907767250513E+01 bohr
energy convergence             1.0000000000000E-06 Eh
density convergence            2.0000000000000E-05 e

------------------------------------------------------------
  cycle        total energy    energy error   density error
------------------------------------------------------------
      1     -1954.947194795  -1.7582784E+02   0.0000000E+00
      2     -1955.297419030  -3.5022423E-01   2.6479661E-02
      3     -1955.516505677  -2.1908665E-01   2.0655192E-02
      4     -1955.970659244  -4.5415357E-01   1.6223231E-02
      5     -1955.978227976  -7.5687316E-03   1.2189211E-03
      6     -1955.978774827  -5.4685105E-04   2.0173837E-04
      7     -1955.978829007  -5.4180061E-05   7.2494153E-05
      8     -1955.978832903  -3.8959040E-06   2.1332384E-05
      9     -1955.978833434  -5.3115315E-07   4.7913973E-06
------------------------------------------------------------

electronic energy             -1.7685948222465E+02 Eh
total energy                  -1.9559788334341E+03 Eh

Post processing:
 | Mayer-Wiberg bond orders
 | Molecular Multipole Moments

 total:                                  10.881 sec
 - increment                              0.000 sec (  0%)
 - repulsion                              0.015 sec (  0%)
 - dispersion                             0.252 sec (  2%)
 - coulomb                                0.263 sec (  2%)
 - exchange                               0.018 sec (  0%)
 - hamiltonian                            0.635 sec (  5%)
 - acp                                    0.246 sec (  2%)
 - spin polarization                      0.000 sec (  0%)
 - post processing                        0.353 sec (  3%)
 - scc                                    8.816 sec ( 81%)
 - coulomb gradient                       0.035 sec (  0%)
 - dispersion gradient                    0.016 sec (  0%)
 - exchange gradient                      0.127 sec (  1%)
 - repulsion gradient                     0.003 sec (  0%)
 - acp gradient                           0.163 sec (  1%)
 - hamiltonian gradient                   0.242 sec (  2%)
 - gradient                               0.586 sec (  5%)

         :::::::::::::::::::::::::::::::::::::::::::::::::::::
         ::                     SUMMARY                     ::
         :::::::::::::::::::::::::::::::::::::::::::::::::::::
         :: total energy           -1955.978833434057 Eh    ::
         :: gradient norm              0.336114988783 Eh/a0 ::
         :: HOMO-LUMO gap              6.484073389897 eV    ::
         ::.................................................::
         :: add. restraining           0.000000000000 Eh    ::
         :: total charge              -1.000000000000 e     ::
         :::::::::::::::::::::::::::::::::::::::::::::::::::::

           -------------------------------------------------
          |                Property Printout                |
           -------------------------------------------------

    * Orbital Energies and Occupations
------------------------------------------------------------------
      #    Occupation            Energy/Eh            Energy/eV
------------------------------------------------------------------
      1        2.0000           -1.2782517             -34.7830
    ...           ...                  ...                  ...
     95        2.0000           -0.3095135              -8.4223
     96        2.0000           -0.3062825              -8.3344
     97        2.0000           -0.3013917              -8.2013
     98        2.0000           -0.2981606              -8.1134
     99        2.0000           -0.2959532              -8.0533
    100        2.0000           -0.2947167              -8.0197
    101        2.0000           -0.2848427              -7.7510
    102        2.0000           -0.2741555              -7.4602
    103        2.0000           -0.2677461              -7.2857
    104        2.0000           -0.2654110              -7.2222
    105        2.0000           -0.1972997              -5.3688
    106        2.0000           -0.1839705              -5.0061
    107        2.0000           -0.1747408              -4.7549 (HOMO)
    108                          0.0635445               1.7291 (LUMO)
    109                          0.0777482               2.1156
    110                          0.0789217               2.1476
    111                          0.0829817               2.2580
    112                          0.0914302               2.4879
    113                          0.0935098               2.5445
    114                          0.0974837               2.6527
    115                          0.1054974               2.8707
    116                          0.1535497               4.1783
    117                          0.2203927               5.9972
    118                          0.2307503               6.2790
    ...                                ...                  ...
    190                          0.9932855              27.0287
------------------------------------------------------------------
               HL-Gap            0.2382853 Eh            6.4841 eV
------------------------------------------------------------------

Atomic charges and shell populations (in atomic units):
------------------------------------------------------
     #    Z                q          p(s)       p(p)
------------------------------------------------------
     1    7 N      -0.384147      1.391716   3.992431
     2    6 C      -0.082921      1.132930   2.949992
     3    6 C       0.408798      1.105748   2.485455
     4    8 O      -0.512558      1.852574   4.659985
     5    7 N      -0.383872      1.383054   4.000817
     6    6 C       0.017945      1.139355   2.842700
     7    6 C       0.411066      1.113421   2.475514
     8    6 C      -0.004474      1.119225   2.885249
     9    8 O      -0.558713      1.857184   4.701529
    10    7 N      -0.319225      1.398794   3.920431
    11    6 C      -0.174725      1.170851   3.003874
    12    6 C       0.405499      1.083844   2.510657
    13    6 C      -0.237448      1.171943   3.065505
    14    6 C      -0.086670      1.135832   2.950838
    15    8 O      -0.493475      1.854001   4.639474
    16    6 C       0.520498      1.072618   2.406883
    17    7 N      -0.360908      1.370612   3.990296
    18    8 O      -0.633141      1.849302   4.783839
    19    8 O      -0.726424      1.862294   4.864130
    20    6 C       0.402988      1.109306   2.487706
    21    6 C      -0.029407      1.140306   2.889100
    22    8 O      -0.521118      1.854899   4.666219
    23    7 N      -0.351370      1.385374   3.965996
    24    6 C      -0.241423      1.161621   3.079802
    25    6 C       0.392800      1.112348   2.494851
    26    6 C      -0.046736      1.138351   2.908385
    27    8 O      -0.553790      1.855023   4.698767
    28    7 N      -0.336944      1.349025   3.987919
    29    6 C       0.415021      1.108209   2.476770
    30    8 O      -0.572131      1.858612   4.713519
    31    6 C      -0.142489      1.132210   3.010279
    32    6 C      -0.066166      1.107380   2.958786
    33    6 C      -0.018395      1.168745   2.849650
    34    6 C      -0.056041      1.124573   2.931468
    35    7 N      -0.254820      1.374249   3.880571
    36    6 C       0.060184      1.100749   2.839067
    37    6 C      -0.105038      1.161619   2.943419
    38    6 C      -0.133180      1.139621   2.993559
    39    6 C      -0.153136      1.149985   3.003151
    40    6 C      -0.104183      1.146188   2.957994
    41    1 H       0.265467      0.734533
    42    1 H       0.145521      0.854479
    43    1 H       0.132356      0.867644
    44    1 H       0.269633      0.730367
    45    1 H       0.136011      0.863989
    46    1 H       0.129538      0.870462
    47    1 H       0.255515      0.744485
    48    1 H       0.106751      0.893249
    49    1 H       0.166383      0.833617
    50    1 H       0.068871      0.931129
    51    1 H       0.067226      0.932774
    52    1 H       0.128490      0.871510
    53    1 H       0.139349      0.860651
    54    1 H       0.278927      0.721073
    55    1 H       0.147425      0.852575
    56    1 H       0.263081      0.736919
    57    1 H       0.088767      0.911233
    58    1 H       0.118900      0.881100
    59    1 H       0.103130      0.896870
    60    1 H       0.117778      0.882222
    61    1 H       0.145376      0.854624
    62    1 H       0.281997      0.718003
    63    1 H       0.117323      0.882677
    64    1 H       0.142536      0.857464
    65    1 H       0.144581      0.855419
    66    1 H       0.249798      0.750202
    67    1 H       0.099986      0.900014
    68    1 H       0.093145      0.906855
    69    1 H       0.107198      0.892802
    70    1 H       0.099208      0.900792
------------------------------------------------------


Wiberg/Mayer (AO) data.
largest (>0.10) Wiberg bond orders for each atom

 ---------------------------------------------------------------------------
     #   Z sym  total        # sym  WBO       # sym  WBO       # sym  WBO
 ---------------------------------------------------------------------------
     1   7 N    3.251 --     7 C    1.145     2 C    0.985    41 O    0.887
                             9 C    0.127
     2   6 C    3.918 --     1 N    0.985    42 O    0.942    43 O    0.942
                             3 C    0.914
     3   6 C    3.865 --     4 C    1.692     5 N    1.194     2 C    0.914
     4   8 C    1.978 --     3 C    1.692     5 N    0.163
     5   7 N    3.291 --     3 C    1.194     6 C    0.937    44 O    0.881
                             4 C    0.163
     6   6 C    3.919 --    31 C    0.969    45 O    0.939     5 N    0.937
                            29 C    0.935
     7   6 C    3.857 --     9 C    1.638     1 N    1.145     8 C    0.983
     8   6 C    3.924 --     7 C    0.983    10 N    0.969    46 O    0.930
                            11 C    0.902
     9   8 C    1.918 --     7 C    1.638     1 N    0.127
    10   7 N    3.300 --    12 C    1.193     8 C    0.969    47 O    0.880
                            15 C    0.166
    11   6 C    3.924 --    13 C    1.027    48 O    0.956    49 O    0.928
                             8 C    0.902
    12   6 C    3.895 --    15 C    1.693    10 N    1.193    14 C    0.966
    13   6 C    3.953 --    11 C    1.027    50 O    0.955    51 O    0.955
                            16 C    0.868
    14   6 C    3.911 --    12 C    0.966    17 N    0.952    52 O    0.946
                            53 O    0.943
    15   8 C    1.973 --    12 C    1.693    10 N    0.166
    16   6 C    3.869 --    18 C    1.568    19 C    1.410    13 C    0.868
    17   7 N    3.290 --    20 C    1.207    14 C    0.952    54 O    0.878
                            22 C    0.168
    18   8 C    1.852 --    16 C    1.568    19 C    0.200
    19   8 C    1.706 --    16 C    1.410    18 C    0.200
    20   6 C    3.875 --    22 C    1.686    17 N    1.207    21 C    0.914
    21   6 C    3.915 --    24 C    1.016    23 N    0.932    55 O    0.924
                            20 C    0.914
    22   8 C    1.964 --    20 C    1.686    17 N    0.168
    23   7 N    3.317 --    25 C    1.239    21 C    0.932    56 O    0.894
                            27 C    0.161
    24   6 C    3.955 --    21 C    1.016    57 O    0.974    59 O    0.969
                            58 O    0.964
    25   6 C    3.861 --    27 C    1.629    23 N    1.239    26 C    0.929
    26   6 C    3.920 --    28 N    0.999    60 O    0.940    61 O    0.935
                            25 C    0.929
    27   8 C    1.932 --    25 C    1.629    23 N    0.161
    28   7 N    3.353 --    29 C    1.247    26 C    0.999    62 O    0.862
                            30 C    0.163
    29   6 C    3.868 --    30 C    1.615    28 N    1.247     6 C    0.935
    30   8 C    1.897 --    29 C    1.615    28 N    0.163
    31   6 C    3.951 --    32 C    1.007     6 C    0.969    63 O    0.954
                            64 O    0.948
    32   6 C    3.972 --    33 C    1.656    34 C    1.165    31 C    1.007
    33   6 C    3.896 --    32 C    1.656    35 N    1.093    65 O    0.941
    34   6 C    3.967 --    37 C    1.348    36 C    1.227    32 C    1.165
    35   7 N    3.420 --    36 C    1.212    33 C    1.093    66 O    0.898
    36   6 C    3.951 --    38 C    1.322    34 C    1.227    35 N    1.212
    37   6 C    3.963 --    39 C    1.474    34 C    1.348    67 O    0.955
                            38 C    0.109
    38   6 C    3.959 --    40 C    1.487    36 C    1.322    68 O    0.953
                            37 C    0.109
    39   6 C    3.964 --    37 C    1.474    40 C    1.373    69 O    0.958
    40   6 C    3.969 --    38 C    1.487    39 C    1.373    70 O    0.957
    41   1 O    0.930 --     1 N    0.887
    42   1 O    0.979 --     2 C    0.942
    43   1 O    0.982 --     2 C    0.942
    44   1 O    0.927 --     5 N    0.881
    45   1 O    0.982 --     6 C    0.939
    46   1 O    0.983 --     8 C    0.930
    47   1 O    0.935 --    10 N    0.880
    48   1 O    0.989 --    11 C    0.956
    49   1 O    0.972 --    11 C    0.928
    50   1 O    0.995 --    13 C    0.955
    51   1 O    0.995 --    13 C    0.955
    52   1 O    0.983 --    14 C    0.946
    53   1 O    0.981 --    14 C    0.943
    54   1 O    0.922 --    17 N    0.878
    55   1 O    0.978 --    21 C    0.924
    56   1 O    0.931 --    23 N    0.894
    57   1 O    0.992 --    24 C    0.974
    58   1 O    0.986 --    24 C    0.964
    59   1 O    0.989 --    24 C    0.969
    60   1 O    0.986 --    26 C    0.940
    61   1 O    0.979 --    26 C    0.935
    62   1 O    0.920 --    28 N    0.862
    63   1 O    0.986 --    31 C    0.954
    64   1 O    0.980 --    31 C    0.948
    65   1 O    0.979 --    33 C    0.941
    66   1 O    0.938 --    35 N    0.898
    67   1 O    0.990 --    37 C    0.955
    68   1 O    0.991 --    38 C    0.953
    69   1 O    0.989 --    39 C    0.958
    70   1 O    0.990 --    40 C    0.957
 ---------------------------------------------------------------------------

Topologies differ in total number of bonds
Writing topology from bond orders to xtbtopo.mol

Atomic dipole moments (in atomic units):
---------------------------------------------------------
     #    Z                 x            y            z
---------------------------------------------------------
           total     3.104617     8.583346     8.502159
---------------------------------------------------------
         |total|    12.473940    31.705593 Debye


           -------------------------------------------------
          | TOTAL ENERGY            -1955.978833434057 Eh   |
          | GRADIENT NORM               0.336114988783 Eh/α |
           -------------------------------------------------

------------------------------------------------------------------------
 * finished run on 2026/05/23 at 08:19:18.516     
------------------------------------------------------------------------
 total:
 * wall-time:     0 d,  0 h,  0 min, 11.830 sec
 *  cpu-time:     0 d,  0 h,  0 min, 23.498 sec
 * ratio c/w:     1.986 speedup
 SCF:
 * wall-time:     0 d,  0 h,  0 min, 11.512 sec
 *  cpu-time:     0 d,  0 h,  0 min, 23.266 sec
 * ratio c/w:     2.021 speedup

normal termination of xtb
