      -----------------------------------------------------------      
     |                   =====================                   |     
     |                           x T B                           |     
     |                   =====================                   |     
     |                         S. Grimme                         |     
     |          Mulliken Center for Theoretical Chemistry        |     
     |                    University of Bonn                     |     
      -----------------------------------------------------------      

   * xtb version 6.7.1 (edcfbbe) compiled by 'albert@albert-system' on 2024-07-22

   xtb is free software: you can redistribute it and/or modify it under
   the terms of the GNU Lesser General Public License as published by
   the Free Software Foundation, either version 3 of the License, or
   (at your option) any later version.
   
   xtb is distributed in the hope that it will be useful,
   but WITHOUT ANY WARRANTY; without even the implied warranty of
   MERCHANTABILITY or FITNESS FOR A PARTICULAR PURPOSE.  See the
   GNU Lesser General Public License for more details.
   
   Cite this work as:
   * C. Bannwarth, E. Caldeweyher, S. Ehlert, A. Hansen, P. Pracht,
     J. Seibert, S. Spicher, S. Grimme, WIREs Comput. Mol. Sci., 2020, 11,
     e01493. DOI: 10.1002/wcms.1493
   
   for GFN2-xTB:
   * C. Bannwarth, S. Ehlert and S. Grimme., J. Chem. Theory Comput., 2019,
     15, 1652-1671. DOI: 10.1021/acs.jctc.8b01176
   for GFN1-xTB:
   * S. Grimme, C. Bannwarth, P. Shushkov, J. Chem. Theory Comput., 2017,
     13, 1989-2009. DOI: 10.1021/acs.jctc.7b00118
   for GFN0-xTB:
   * P. Pracht, E. Caldeweyher, S. Ehlert, S. Grimme, ChemRxiv, 2019, preprint.
     DOI: 10.26434/chemrxiv.8326202.v1
   for GFN-FF:
   * S. Spicher and S. Grimme, Angew. Chem. Int. Ed., 2020, 59, 15665-15673.
     DOI: 10.1002/anie.202004239
   
   for ALPB and GBSA implicit solvation:
   * S. Ehlert, M. Stahn, S. Spicher, S. Grimme, J. Chem. Theory Comput.,
     2021, 17, 4250-4261. DOI: 10.1021/acs.jctc.1c00471
   
   for ddCOSMO and CPCM-X implicit solvation:
   * M. Stahn, S. Ehlert, S. Grimme, J. Phys. Chem. A,
     2023, XX, XXXX-XXXX. DOI: 10.1021/acs.jpca.3c04382
   
   for DFT-D4:
   * E. Caldeweyher, C. Bannwarth and S. Grimme, J. Chem. Phys., 2017,
     147, 034112. DOI: 10.1063/1.4993215
   * E. Caldeweyher, S. Ehlert, A. Hansen, H. Neugebauer, S. Spicher,
     C. Bannwarth and S. Grimme, J. Chem. Phys., 2019, 150, 154122.
     DOI: 10.1063/1.5090222
   * E. Caldeweyher, J.-M. Mewes, S. Ehlert and S. Grimme, Phys. Chem. Chem. Phys.
     2020, 22, 8499-8512. DOI: 10.1039/D0CP00502A
   
   for sTDA-xTB:
   * S. Grimme and C. Bannwarth, J. Chem. Phys., 2016, 145, 054103.
     DOI: 10.1063/1.4959605
   
   in the mass-spec context:
   * V. Asgeirsson, C. Bauer and S. Grimme, Chem. Sci., 2017, 8, 4879.
     DOI: 10.1039/c7sc00601b
   * J. Koopman and S. Grimme, ACS Omega 2019, 4, 12, 15120-15133.
     DOI: 10.1021/acsomega.9b02011
   
   for metadynamics refer to:
   * S. Grimme, J. Chem. Theory Comput., 2019, 155, 2847-2862
     DOI: 10.1021/acs.jctc.9b00143
   
   for SPH calculations refer to:
   * S. Spicher and S. Grimme, J. Chem. Theory Comput., 2021, 17, 1701-1714
     DOI: 10.1021/acs.jctc.0c01306
   
   for ONIOM refer to:
   * C. Plett, A. Katbashev, S. Ehlert, S. Grimme, M. Bursch,
     Phys. Chem. Chem. Phys., 2023, 25, 17860-17868. DOI: 10.1039/D3CP02178E
   
   for DIPRO refer to:
   * J. Kohn, N. Gildemeister, S. Grimme, D. Fazzi, A. Hansen,
     J. Chem. Phys., 2023, just accepted.
   
   for PTB refer to:
   * S. Grimme, M. Mueller, A. Hansen, J. Chem. Phys., 2023, 158, 124111.
     DOI: 10.1063/5.0137838
   
   with help from (in alphabetical order)
   P. Atkinson, C. Bannwarth, F. Bohle, G. Brandenburg, E. Caldeweyher
   M. Checinski, S. Dohm, S. Ehlert, S. Ehrlich, I. Gerasimov, C. Hölzer
   A. Katbashev, J. Kohn, J. Koopman, C. Lavigne, S. Lehtola, F. März, M. Müller,
   F. Musil, H. Neugebauer, J. Pisarek, C. Plett, P. Pracht, F. Pultar,
   J. Seibert, P. Shushkov, S. Spicher, M. Stahn, M. Steiner, T. Strunk,
   J. Stückrath, T. Rose, and J. Unsleber
   
 * started run on 2026/05/23 at 12:23:30.578     
   ID    Z sym.   atoms
    1    7 N      1, 5, 10, 17, 18, 26, 33, 36, 42, 49, 54
    2    6 C      2, 3, 6-8, 11-14, 19-22, 24, 25, 27-30, 32, 34, 37, 39, 40,
                  43-45, 47, 50-52, 55
    3    8 O      4, 9, 15, 16, 23, 31, 35, 38, 41, 46, 48, 53, 56
    4    1 H      57-109

           -------------------------------------------------
          |                Calculation Setup                |
           -------------------------------------------------

          program call               : /home/xchen/software/xtb-6.7.1/xtb-dist/bin/xtb /home/xchen/Test/benchmark/md_sampled/08_7_0366_0/snap_0003.xyz --charge 0 --gfn 2 --norestart
          coordinate file            : /home/xchen/Test/benchmark/md_sampled/08_7_0366_0/snap_0003.xyz
          omp threads                :                    48


           -------------------------------------------------
          |                 G F N 2 - x T B                 |
           -------------------------------------------------

        Reference                      10.1021/acs.jctc.8b01176
      * Hamiltonian:
        H0-scaling (s, p, d)           1.850000    2.230000    2.230000
        zeta-weighting                 0.500000
      * Dispersion:
        s8                             2.700000
        a1                             0.520000
        a2                             5.000000
        s9                             5.000000
      * Repulsion:
        kExp                           1.500000    1.000000
        rExp                           1.000000
      * Coulomb:
        alpha                          2.000000
        third order                    shell-resolved
        anisotropic                    true
        a3                             3.000000
        a5                             4.000000
        cn-shift                       1.200000
        cn-exp                         4.000000
        max-rad                        5.000000


          ...................................................
          :                      SETUP                      :
          :.................................................:
          :  # basis functions                 277          :
          :  # atomic orbitals                 277          :
          :  # shells                          165          :
          :  # electrons                       314          :
          :  max. iterations                   250          :
          :  Hamiltonian                  GFN2-xTB          :
          :  restarted?                      false          :
          :  GBSA solvation                  false          :
          :  PC potential                    false          :
          :  electronic temp.          300.0000000     K    :
          :  accuracy                    1.0000000          :
          :  -> integral cutoff          0.2500000E+02      :
          :  -> integral neglect         0.1000000E-07      :
          :  -> SCF convergence          0.1000000E-05 Eh   :
          :  -> wf. convergence          0.1000000E-03 e    :
          :  Broyden damping             0.4000000          :
          :  net charge                          0          :
          :  unpaired electrons                  0          :
          ...................................................

 iter      E             dE          RMSdq      gap      omega  full diag
   1   -181.9204108 -0.181920E+03  0.443E+00    4.17       0.0  T
   2   -182.5936768 -0.673266E+00  0.235E+00    3.38       1.0  T
   3   -182.6249102 -0.312333E-01  0.134E+00    3.75       1.0  T
   4   -182.6266152 -0.170507E-02  0.246E-01    3.45       1.0  T
   5   -182.6311959 -0.458062E-02  0.975E-02    3.60       1.0  T
   6   -182.6312497 -0.538427E-04  0.430E-02    3.58       1.0  T
   7   -182.6312671 -0.174015E-04  0.163E-02    3.59       1.0  T
   8   -182.6312756 -0.853802E-05  0.574E-03    3.58       1.7  T
   9   -182.6312763 -0.634663E-06  0.238E-03    3.58       4.0  T
  10   -182.6312763 -0.703611E-07  0.977E-04    3.58       9.8  T
  11   -182.6312764 -0.248548E-07  0.275E-04    3.58      34.8  T

   *** convergence criteria satisfied after 11 iterations ***

         #    Occupation            Energy/Eh            Energy/eV
      -------------------------------------------------------------
         1        2.0000           -0.7109524             -19.3460
       ...           ...                  ...                  ...
       151        2.0000           -0.3932875             -10.7019
       152        2.0000           -0.3898068             -10.6072
       153        2.0000           -0.3889602             -10.5841
       154        2.0000           -0.3863681             -10.5136
       155        2.0000           -0.3824283             -10.4064
       156        2.0000           -0.3814348             -10.3794
       157        2.0000           -0.3683472             -10.0232 (HOMO)
       158                         -0.2366810              -6.4404 (LUMO)
       159                         -0.2307645              -6.2794
       160                         -0.2281173              -6.2074
       161                         -0.2244225              -6.1068
       162                         -0.2188319              -5.9547
       ...                                ...                  ...
       277                          0.7557253              20.5643
      -------------------------------------------------------------
                  HL-Gap            0.1316662 Eh            3.5828 eV
             Fermi-level           -0.3025141 Eh           -8.2318 eV

 SCC (total)                   0 d,  0 h,  0 min, 16.442 sec
 SCC setup                      ...        0 min,  0.068 sec (  0.416%)
 Dispersion                     ...        0 min,  0.182 sec (  1.106%)
 classical contributions        ...        0 min,  0.206 sec (  1.251%)
 integral evaluation            ...        0 min,  0.689 sec (  4.189%)
 iterations                     ...        0 min, 14.386 sec ( 87.495%)
 molecular gradient             ...        0 min,  0.812 sec (  4.938%)
 printout                       ...        0 min,  0.021 sec (  0.125%)

         :::::::::::::::::::::::::::::::::::::::::::::::::::::
         ::                     SUMMARY                     ::
         :::::::::::::::::::::::::::::::::::::::::::::::::::::
         :: total energy            -180.551585152047 Eh    ::
         :: gradient norm              0.378503090896 Eh/a0 ::
         :: HOMO-LUMO gap              3.582819378112 eV    ::
         ::.................................................::
         :: SCC energy              -182.622964050082 Eh    ::
         :: -> isotropic ES            0.483573330786 Eh    ::
         :: -> anisotropic ES          0.011913340999 Eh    ::
         :: -> anisotropic XC          0.036917346490 Eh    ::
         :: -> dispersion             -0.131007065326 Eh    ::
         :: repulsion energy           2.071378898035 Eh    ::
         :: add. restraining           0.000000000000 Eh    ::
         :: total charge              -0.000000000000 e     ::
         :::::::::::::::::::::::::::::::::::::::::::::::::::::

           -------------------------------------------------
          |                Property Printout                |
           -------------------------------------------------

    * Orbital Energies and Occupations

         #    Occupation            Energy/Eh            Energy/eV
      -------------------------------------------------------------
         1        2.0000           -0.7109524             -19.3460
       ...           ...                  ...                  ...
       145        2.0000           -0.4144431             -11.2776
       146        2.0000           -0.4045379             -11.0080
       147        2.0000           -0.4024246             -10.9505
       148        2.0000           -0.4023082             -10.9474
       149        2.0000           -0.3988574             -10.8535
       150        2.0000           -0.3950904             -10.7510
       151        2.0000           -0.3932875             -10.7019
       152        2.0000           -0.3898068             -10.6072
       153        2.0000           -0.3889602             -10.5841
       154        2.0000           -0.3863681             -10.5136
       155        2.0000           -0.3824283             -10.4064
       156        2.0000           -0.3814348             -10.3794
       157        2.0000           -0.3683472             -10.0232 (HOMO)
       158                         -0.2366810              -6.4404 (LUMO)
       159                         -0.2307645              -6.2794
       160                         -0.2281173              -6.2074
       161                         -0.2244225              -6.1068
       162                         -0.2188319              -5.9547
       163                         -0.2110301              -5.7424
       164                         -0.2065548              -5.6206
       165                         -0.2046589              -5.5691
       166                         -0.2026660              -5.5148
       167                         -0.1981278              -5.3913
       168                         -0.1962327              -5.3398
       ...                                ...                  ...
       277                          0.7557253              20.5643
      -------------------------------------------------------------
                  HL-Gap            0.1316662 Eh            3.5828 eV
             Fermi-level           -0.3025141 Eh           -8.2318 eV

     #   Z          covCN         q      C6AA      α(0)
     1   7 N        2.686    -0.180    24.904     7.412
     2   6 C        3.805     0.037    19.942     6.357
     3   6 C        2.751     0.248    22.831     7.824
     4   8 O        0.857    -0.495    23.673     6.523
     5   7 N        2.682    -0.164    24.544     7.358
     6   6 C        3.795     0.006    20.482     6.444
     7   6 C        2.747     0.272    22.410     7.751
     8   6 C        3.791     0.011    20.400     6.432
     9   8 O        0.857    -0.379    21.265     6.183
    10   7 N        2.690    -0.179    24.869     7.406
    11   6 C        3.795    -0.107    22.549     6.762
    12   6 C        2.768     0.266    22.504     7.769
    13   6 C        2.739     0.292    22.044     7.687
    14   6 C        3.813     0.017    20.288     6.411
    15   8 O        0.860    -0.433    22.346     6.338
    16   8 O        0.865    -0.410    21.872     6.270
    17   7 N        2.640    -0.263    26.824     7.692
    18   7 N        2.690    -0.164    24.539     7.357
    19   6 C        3.811    -0.071    21.854     6.654
    20   6 C        2.747     0.275    22.344     7.740
    21   6 C        3.852    -0.011    20.741     6.478
    22   6 C        3.780    -0.000    20.605     6.467
    23   8 O        0.859    -0.431    22.312     6.333
    24   6 C        3.735    -0.105    22.602     6.785
    25   6 C        3.750    -0.113    22.720     6.798
    26   7 N        2.682    -0.148    24.206     7.307
    27   6 C        3.802    -0.057    21.596     6.616
    28   6 C        2.747     0.274    22.366     7.744
    29   6 C        3.801    -0.098    22.370     6.734
    30   6 C        3.791     0.004    20.515     6.450
    31   8 O        0.859    -0.428    22.254     6.325
    32   6 C        2.739     0.282    22.227     7.719
    33   7 N        2.682    -0.174    24.774     7.392
    34   6 C        3.719     0.106    18.945     6.217
    35   8 O        0.858    -0.454    22.786     6.400
    36   7 N        2.640    -0.251    26.527     7.649
    37   6 C        2.690     0.261    22.597     7.780
    38   8 O        1.641    -0.482    22.510     6.404
    39   6 C        3.754    -0.115    22.758     6.802
    40   6 C        3.743     0.007    20.534     6.465
    41   8 O        0.859    -0.387    21.420     6.205
    42   7 N        2.695    -0.173    24.749     7.389
    43   6 C        3.773    -0.052    21.539     6.613
    44   6 C        2.756     0.303    21.852     7.655
    45   6 C        3.804    -0.105    22.493     6.752
    46   8 O        0.861    -0.378    21.241     6.179
    47   6 C        2.741     0.282    22.226     7.719
    48   8 O        0.859    -0.448    22.659     6.382
    49   7 N        2.635    -0.263    26.814     7.691
    50   6 C        3.801    -0.059    21.639     6.623
    51   6 C        3.803    -0.095    22.314     6.725
    52   6 C        2.741     0.271    22.414     7.752
    53   8 O        0.862    -0.417    22.012     6.290
    54   7 N        2.640    -0.304    27.826     7.834
    55   6 C        3.679     0.073    19.561     6.335
    56   8 O        1.652    -0.426    21.361     6.239
    57   1 H        0.861     0.189     1.162     1.689
    58   1 H        0.924     0.064     2.148     2.292
    59   1 H        0.861     0.188     1.171     1.695
    60   1 H        0.928     0.113     1.669     2.020
    61   1 H        0.927     0.093     1.850     2.127
    62   1 H        0.862     0.175     1.241     1.745
    63   1 H        0.927     0.083     1.952     2.185
    64   1 H        0.915     0.052     2.294     2.369
    65   1 H        0.929     0.089     1.889     2.149
    66   1 H        0.858     0.176     1.240     1.745
    67   1 H        0.861     0.203     1.093     1.637
    68   1 H        0.860     0.222     0.998     1.565
    69   1 H        0.924     0.053     2.278     2.360
    70   1 H        0.918     0.029     2.606     2.525
    71   1 H        0.925     0.029     2.597     2.520
    72   1 H        0.923     0.092     1.860     2.133
    73   1 H        0.926     0.052     2.293     2.368
    74   1 H        0.916     0.031     2.573     2.509
    75   1 H        0.910     0.022     2.703     2.572
    76   1 H        0.919     0.042     2.424     2.435
    77   1 H        0.917     0.030     2.588     2.516
    78   1 H        0.928     0.050     2.314     2.379
    79   1 H        0.860     0.184     1.194     1.711
    80   1 H        0.926     0.057     2.229     2.335
    81   1 H        0.925     0.074     2.043     2.235
    82   1 H        0.919     0.039     2.468     2.457
    83   1 H        0.927     0.056     2.249     2.345
    84   1 H        0.929     0.107     1.723     2.052
    85   1 H        0.862     0.179     1.220     1.730
    86   1 H        0.927     0.057     2.237     2.339
    87   1 H        0.859     0.194     1.139     1.672
    88   1 H        0.861     0.203     1.092     1.637
    89   1 H        0.802     0.288     0.758     1.367
    90   1 H        0.923     0.046     2.372     2.408
    91   1 H        0.926     0.054     2.269     2.356
    92   1 H        0.925     0.053     2.277     2.360
    93   1 H        0.928     0.056     2.251     2.346
    94   1 H        0.862     0.178     1.223     1.732
    95   1 H        0.926     0.050     2.319     2.382
    96   1 H        0.890     0.004     3.000     2.711
    97   1 H        0.928     0.066     2.129     2.282
    98   1 H        0.925     0.081     1.972     2.196
    99   1 H        0.860     0.203     1.093     1.638
   100   1 H        0.861     0.199     1.113     1.653
   101   1 H        0.921     0.071     2.077     2.254
   102   1 H        0.918     0.057     2.236     2.339
   103   1 H        0.924     0.090     1.880     2.144
   104   1 H        0.928     0.050     2.322     2.383
   105   1 H        0.862     0.179     1.221     1.731
   106   1 H        0.861     0.208     1.065     1.617
   107   1 H        0.928     0.049     2.327     2.385
   108   1 H        0.927     0.025     2.659     2.550
   109   1 H        0.802     0.294     0.738     1.350

 Mol. C6AA /au·bohr⁶  :     113151.931330
 Mol. C8AA /au·bohr⁸  :    2501324.549097
 Mol. α(0) /au        :        499.851191


Wiberg/Mayer (AO) data.
largest (>0.10) Wiberg bond orders for each atom

 ---------------------------------------------------------------------------
     #   Z sym  total        # sym  WBO       # sym  WBO       # sym  WBO
 ---------------------------------------------------------------------------
     1   7 N    3.368 --     7 C    1.198     2 C    0.986    57 H    0.930
                             9 O    0.172
     2   6 C    3.970 --     1 N    0.986    50 C    0.977    58 H    0.954
                             3 C    0.936
     3   6 C    3.951 --     4 O    1.593     5 N    1.340     2 C    0.936
     4   8 O    1.903 --     3 C    1.593     5 N    0.188
     5   7 N    3.468 --     3 C    1.340     6 C    0.946    59 H    0.927
                             4 O    0.188
     6   6 C    3.940 --    55 C    0.989    60 H    0.952     5 N    0.946
                            44 C    0.903
     7   6 C    3.939 --     9 O    1.783     1 N    1.198     8 C    0.875
     8   6 C    3.955 --    10 N    0.985    11 C    0.983    61 H    0.954
                             7 C    0.875
     9   8 O    2.082 --     7 C    1.783     1 N    0.172
    10   7 N    3.439 --    12 C    1.256     8 C    0.985    62 H    0.935
                            15 O    0.183
    11   6 C    3.989 --     8 C    0.983    63 H    0.969    64 H    0.965
                            13 C    0.943
    12   6 C    3.953 --    15 O    1.685    10 N    1.256    14 C    0.929
    13   6 C    3.949 --    16 O    1.724    17 N    1.257    11 C    0.943
    14   6 C    3.968 --    18 N    0.990    19 C    0.983    65 H    0.936
                            12 C    0.929
    15   8 O    1.997 --    12 C    1.685    10 N    0.183
    16   8 O    2.038 --    13 C    1.724    17 N    0.202
    17   7 N    3.372 --    13 C    1.257    66 H    0.945    67 H    0.938
                            16 O    0.202
    18   7 N    3.441 --    20 C    1.284    14 C    0.990    68 H    0.909
                            23 O    0.185
    19   6 C    3.992 --    21 C    0.990    14 C    0.983    69 H    0.971
                            70 H    0.965
    20   6 C    3.952 --    23 O    1.694    18 N    1.284    22 C    0.896
    21   6 C    3.995 --    25 C    1.012    24 C    1.009    19 C    0.990
                            71 H    0.966
    22   6 C    3.943 --    27 C    0.990    26 N    0.958    72 H    0.934
                            20 C    0.896
    23   8 O    2.022 --    20 C    1.694    18 N    0.185
    24   6 C    3.993 --    21 C    1.009    73 H    0.984    75 H    0.983
                            74 H    0.983
    25   6 C    3.992 --    21 C    1.012    77 H    0.983    78 H    0.982
                            76 H    0.981
    26   7 N    3.469 --    28 C    1.319    22 C    0.958    79 H    0.930
                            31 O    0.197
    27   6 C    3.988 --    22 C    0.990    29 C    0.989    80 H    0.974
                            81 H    0.964
    28   6 C    3.958 --    31 O    1.673    26 N    1.319    30 C    0.896
    29   6 C    3.992 --    27 C    0.989    83 H    0.975    82 H    0.971
                            32 C    0.945
    30   6 C    3.952 --    34 C    0.989    33 N    0.962    84 H    0.951
                            28 C    0.896
    31   8 O    2.001 --    28 C    1.673    26 N    0.197
    32   6 C    3.947 --    35 O    1.673    36 N    1.306    29 C    0.945
    33   7 N    3.425 --    37 C    1.261    30 C    0.962    85 H    0.934
                            41 O    0.186
    34   6 C    3.950 --    39 C    1.017    30 C    0.989    86 H    0.959
                            38 O    0.946
    35   8 O    1.978 --    32 C    1.673    36 N    0.199
    36   7 N    3.406 --    32 C    1.306    88 H    0.939    87 H    0.935
                            35 O    0.199
    37   6 C    3.941 --    41 O    1.750    33 N    1.261    40 C    0.843
    38   8 O    1.921 --    34 C    0.946    89 H    0.903
    39   6 C    3.993 --    34 C    1.017    90 H    0.983    91 H    0.980
                            92 H    0.979
    40   6 C    3.955 --    43 C    0.996    42 N    0.981    93 H    0.964
                            37 C    0.843
    41   8 O    2.083 --    37 C    1.750    33 N    0.186
    42   7 N    3.423 --    44 C    1.244    40 C    0.981    94 H    0.939
                            46 O    0.193
    43   6 C    3.991 --    40 C    0.996    45 C    0.989    95 H    0.972
                            96 H    0.964
    44   6 C    3.956 --    46 O    1.747    42 N    1.244     6 C    0.903
    45   6 C    3.988 --    43 C    0.989    97 H    0.966    98 H    0.962
                            47 C    0.958
    46   8 O    2.084 --    44 C    1.747    42 N    0.193
    47   6 C    3.947 --    48 O    1.683    49 N    1.280    45 C    0.958
    48   8 O    1.983 --    47 C    1.683    49 N    0.196
    49   7 N    3.386 --    47 C    1.280   100 H    0.941    99 H    0.936
                            48 O    0.196
    50   6 C    3.985 --    51 C    0.998     2 C    0.977   101 H    0.967
                           102 H    0.966
    51   6 C    3.994 --    50 C    0.998   104 H    0.974    52 C    0.969
                           103 H    0.952
    52   6 C    3.942 --    53 O    1.735    54 N    1.205    51 C    0.969
    53   8 O    2.020 --    52 C    1.735    54 N    0.180
    54   7 N    3.304 --    52 C    1.205   105 H    0.948   106 H    0.937
                            53 O    0.180
    55   6 C    3.963 --    56 O    1.001     6 C    0.989   108 H    0.971
                           107 H    0.971
    56   8 O    1.951 --    55 C    1.001   109 H    0.899
    57   1 H    0.964 --     1 N    0.930
    58   1 H    0.996 --     2 C    0.954
    59   1 H    0.965 --     5 N    0.927
    60   1 H    0.987 --     6 C    0.952
    61   1 H    0.991 --     8 C    0.954
    62   1 H    0.969 --    10 N    0.935
    63   1 H    0.993 --    11 C    0.969
    64   1 H    0.997 --    11 C    0.965
    65   1 H    0.992 --    14 C    0.936
    66   1 H    0.969 --    17 N    0.945
    67   1 H    0.959 --    17 N    0.938
    68   1 H    0.950 --    18 N    0.909
    69   1 H    0.997 --    19 C    0.971
    70   1 H    0.998 --    19 C    0.965
    71   1 H    0.999 --    21 C    0.966
    72   1 H    0.991 --    22 C    0.934
    73   1 H    0.997 --    24 C    0.984
    74   1 H    0.999 --    24 C    0.983
    75   1 H    0.999 --    24 C    0.983
    76   1 H    0.998 --    25 C    0.981
    77   1 H    0.999 --    25 C    0.983
    78   1 H    0.997 --    25 C    0.982
    79   1 H    0.966 --    26 N    0.930
    80   1 H    0.997 --    27 C    0.974
    81   1 H    0.994 --    27 C    0.964
    82   1 H    0.998 --    29 C    0.971
    83   1 H    0.997 --    29 C    0.975
    84   1 H    0.988 --    30 C    0.951
    85   1 H    0.968 --    33 N    0.934
    86   1 H    0.996 --    34 C    0.959
    87   1 H    0.962 --    36 N    0.935
    88   1 H    0.959 --    36 N    0.939
    89   1 H    0.917 --    38 O    0.903
    90   1 H    0.998 --    39 C    0.983
    91   1 H    0.997 --    39 C    0.980
    92   1 H    0.996 --    39 C    0.979
    93   1 H    0.997 --    40 C    0.964
    94   1 H    0.968 --    42 N    0.939
    95   1 H    0.997 --    43 C    0.972
    96   1 H    0.999 --    43 C    0.964
    97   1 H    0.996 --    45 C    0.966
    98   1 H    0.993 --    45 C    0.962
    99   1 H    0.959 --    49 N    0.936
   100   1 H    0.961 --    49 N    0.941
   101   1 H    0.994 --    50 C    0.967
   102   1 H    0.996 --    50 C    0.966
   103   1 H    0.992 --    51 C    0.952
   104   1 H    0.998 --    51 C    0.974
   105   1 H    0.968 --    54 N    0.948
   106   1 H    0.956 --    54 N    0.937
   107   1 H    0.997 --    55 C    0.971
   108   1 H    0.999 --    55 C    0.971
   109   1 H    0.913 --    56 O    0.899
 ---------------------------------------------------------------------------

Topologies differ in total number of bonds
Writing topology from bond orders to xtbtopo.mol

molecular dipole:
                 x           y           z       tot (Debye)
 q only:        0.703      -0.308       2.413
   full:        1.277      -0.374       2.603       7.431
molecular quadrupole (traceless):
                xx          xy          yy          xz          yz          zz
 q only:       64.577      25.537     -34.788      -2.180     -61.507     -29.789
  q+dip:       78.693      37.678     -42.155      -0.388     -78.689     -36.538
   full:       79.601      37.047     -43.546      -0.377     -79.251     -36.055


           -------------------------------------------------
          | TOTAL ENERGY             -180.551585152047 Eh   |
          | GRADIENT NORM               0.378503090896 Eh/α |
          | HOMO-LUMO GAP               3.582819378112 eV   |
           -------------------------------------------------

------------------------------------------------------------------------
 * finished run on 2026/05/23 at 12:23:48.478     
------------------------------------------------------------------------
 total:
 * wall-time:     0 d,  0 h,  0 min, 17.899 sec
 *  cpu-time:     0 d,  0 h,  0 min, 21.800 sec
 * ratio c/w:     1.218 speedup
 SCF:
 * wall-time:     0 d,  0 h,  0 min, 16.444 sec
 *  cpu-time:     0 d,  0 h,  0 min, 20.800 sec
 * ratio c/w:     1.265 speedup

normal termination of xtb
