      -----------------------------------------------------------      
     |                   =====================                   |     
     |                           x T B                           |     
     |                   =====================                   |     
     |                         S. Grimme                         |     
     |          Mulliken Center for Theoretical Chemistry        |     
     |                    University of Bonn                     |     
      -----------------------------------------------------------      

   * xtb version 6.7.1 (26dd68d) compiled by 'froitzheim@fs7' on 2026-05-14

   xtb is free software: you can redistribute it and/or modify it under
   the terms of the GNU Lesser General Public License as published by
   the Free Software Foundation, either version 3 of the License, or
   (at your option) any later version.
   
   xtb is distributed in the hope that it will be useful,
   but WITHOUT ANY WARRANTY; without even the implied warranty of
   MERCHANTABILITY or FITNESS FOR A PARTICULAR PURPOSE.  See the
   GNU Lesser General Public License for more details.
   
   Cite this work as:
   * C. Bannwarth, E. Caldeweyher, S. Ehlert, A. Hansen, P. Pracht,
     J. Seibert, S. Spicher, S. Grimme, WIREs Comput. Mol. Sci., 2020, 11,
     e01493. DOI: 10.1002/wcms.1493
   
   for g-xTB:
   * T. Froitzheim, M. Müller, A. Hansen, S. Grimme, ChemRxiv, 2025, preprint.
     DOI: 10.26434/chemrxiv-2025-bjxv
   for GFN2-xTB:
   * C. Bannwarth, S. Ehlert and S. Grimme., J. Chem. Theory Comput., 2019,
     15, 1652-1671. DOI: 10.1021/acs.jctc.8b01176
   for GFN1-xTB:
   * S. Grimme, C. Bannwarth, P. Shushkov, J. Chem. Theory Comput., 2017,
     13, 1989-2009. DOI: 10.1021/acs.jctc.7b00118
   for GFN0-xTB:
   * P. Pracht, E. Caldeweyher, S. Ehlert, S. Grimme, ChemRxiv, 2019, preprint.
     DOI: 10.26434/chemrxiv.8326202.v1
   for GFN-FF:
   * S. Spicher and S. Grimme, Angew. Chem. Int. Ed., 2020, 59, 15665-15673.
     DOI: 10.1002/anie.202004239
   
   for ALPB and GBSA implicit solvation:
   * S. Ehlert, M. Stahn, S. Spicher, S. Grimme, J. Chem. Theory Comput.,
     2021, 17, 4250-4261. DOI: 10.1021/acs.jctc.1c00471
   
   for ddCOSMO and CPCM-X implicit solvation:
   * M. Stahn, S. Ehlert, S. Grimme, J. Phys. Chem. A,
     2023, XX, XXXX-XXXX. DOI: 10.1021/acs.jpca.3c04382
   
   for DFT-D4:
   * E. Caldeweyher, C. Bannwarth and S. Grimme, J. Chem. Phys., 2017,
     147, 034112. DOI: 10.1063/1.4993215
   * E. Caldeweyher, S. Ehlert, A. Hansen, H. Neugebauer, S. Spicher,
     C. Bannwarth and S. Grimme, J. Chem. Phys., 2019, 150, 154122.
     DOI: 10.1063/1.5090222
   * E. Caldeweyher, J.-M. Mewes, S. Ehlert and S. Grimme, Phys. Chem. Chem. Phys.
     2020, 22, 8499-8512. DOI: 10.1039/D0CP00502A
   
   for sTDA-xTB:
   * S. Grimme and C. Bannwarth, J. Chem. Phys., 2016, 145, 054103.
     DOI: 10.1063/1.4959605
   
   in the mass-spec context:
   * V. Asgeirsson, C. Bauer and S. Grimme, Chem. Sci., 2017, 8, 4879.
     DOI: 10.1039/c7sc00601b
   * J. Koopman and S. Grimme, ACS Omega 2019, 4, 12, 15120-15133.
     DOI: 10.1021/acsomega.9b02011
   
   for metadynamics refer to:
   * S. Grimme, J. Chem. Theory Comput., 2019, 155, 2847-2862
     DOI: 10.1021/acs.jctc.9b00143
   
   for SPH calculations refer to:
   * S. Spicher and S. Grimme, J. Chem. Theory Comput., 2021, 17, 1701-1714
     DOI: 10.1021/acs.jctc.0c01306
   
   for ONIOM refer to:
   * C. Plett, A. Katbashev, S. Ehlert, S. Grimme, M. Bursch,
     Phys. Chem. Chem. Phys., 2023, 25, 17860-17868. DOI: 10.1039/D3CP02178E
   
   for DIPRO refer to:
   * J. Kohn, N. Gildemeister, S. Grimme, D. Fazzi, A. Hansen,
     J. Chem. Phys. 159, 144106 (2023). DOI: 10.1063/5.0167484
   
   for PTB refer to:
   * S. Grimme, M. Mueller, A. Hansen, J. Chem. Phys., 2023, 158, 124111.
     DOI: 10.1063/5.0137838
   
   with help from (in alphabetical order)
   P. Atkinson, C. Bannwarth, F. Bohle, G. Brandenburg, E. Caldeweyher,
   M. Checinski, S. Dohm, S. Ehlert, S. Ehrlich, M. Friede, T. Froitzheim,
   I. Gerasimov, C. Hölzer, A. Katbashev, J. Kohn, J. Koopman, C. Lavigne,
   S. Lehtola, F. März, M. Müller, F. Musil, H. Neugebauer, J. Pisarek,
   C. Plett, P. Pracht, F. Pultar, J. Seibert, P. Shushkov, S. Spicher,
   M. Stahn, M. Steiner, T. Strunk, J. Stückrath, T. Rose, and J. Unsleber
   
 * started run on 2026/05/23 at 12:38:20.777     
   ID    Z sym.   atoms
    1    7 N      1, 5, 10, 17, 18, 25, 30, 33
    2    6 C      2, 3, 6-8, 11-14, 19-23, 26-28, 31, 32, 34, 36-39
    3    8 O      4, 9, 15, 16, 24, 29, 35
    4    1 H      40-77

           -------------------------------------------------
          |                Calculation Setup                |
           -------------------------------------------------

          program call               : /home/xchen/software/xtb-6.7.1-gxtb/bin/xtb /home/xchen/Test/benchmark/md_sampled/05_5_0513_0/snap_0125.xyz --charge 0 --gxtb --norestart
          coordinate file            : /home/xchen/Test/benchmark/md_sampled/05_5_0513_0/snap_0125.xyz
          omp threads                :                    48

core increment energy         -1.7251241620057E+03 Eh
dispersion energy              1.7076005434350E-02 Eh
molecular charge               0.0000000000000E+00 e
number of electrons            2.1599999999805E+02 e
number of unpaired electrons   0.0000000000000E+00 e
wavefunction                   restricted
integral cutoff                2.6907767250513E+01 bohr
energy convergence             1.0000000000000E-06 Eh
density convergence            2.0000000000000E-05 e

------------------------------------------------------------
  cycle        total energy    energy error   density error
------------------------------------------------------------
      1     -1901.075453929  -1.7596837E+02   0.0000000E+00
      2     -1901.410862575  -3.3540865E-01   2.3302125E-02
      3     -1901.623151121  -2.1228855E-01   1.8423058E-02
      4     -1902.066677038  -4.4352592E-01   1.4620259E-02
      5     -1902.075040594  -8.3635557E-03   1.0757720E-03
      6     -1902.075595676  -5.5508216E-04   2.0427575E-04
      7     -1902.075645086  -4.9409267E-05   6.3422501E-05
      8     -1902.075649406  -4.3201688E-06   1.7227246E-05
      9     -1902.075649945  -5.3933118E-07   4.8389872E-06
------------------------------------------------------------

electronic energy             -1.7696856394480E+02 Eh
total energy                  -1.9020756499451E+03 Eh

Post processing:
 | Mayer-Wiberg bond orders
 | Molecular Multipole Moments

 total:                                  11.819 sec
 - increment                              0.000 sec (  0%)
 - repulsion                              0.008 sec (  0%)
 - dispersion                             0.476 sec (  4%)
 - coulomb                                0.325 sec (  2%)
 - exchange                               0.008 sec (  0%)
 - hamiltonian                            0.376 sec (  3%)
 - acp                                    0.195 sec (  1%)
 - post processing                        0.108 sec (  0%)
 - scc                                    9.386 sec ( 79%)
 - coulomb gradient                       0.255 sec (  2%)
 - dispersion gradient                    0.039 sec (  0%)
 - exchange gradient                      0.112 sec (  0%)
 - repulsion gradient                     0.005 sec (  0%)
 - acp gradient                           0.210 sec (  1%)
 - hamiltonian gradient                   0.417 sec (  3%)
 - gradient                               1.039 sec (  8%)

         :::::::::::::::::::::::::::::::::::::::::::::::::::::
         ::                     SUMMARY                     ::
         :::::::::::::::::::::::::::::::::::::::::::::::::::::
         :: total energy           -1902.075649945064 Eh    ::
         :: gradient norm              0.337629964403 Eh/a0 ::
         :: HOMO-LUMO gap              9.573877514424 eV    ::
         ::.................................................::
         :: add. restraining           0.000000000000 Eh    ::
         :: total charge              -0.000000000000 e     ::
         :::::::::::::::::::::::::::::::::::::::::::::::::::::

           -------------------------------------------------
          |                Property Printout                |
           -------------------------------------------------

    * Orbital Energies and Occupations
------------------------------------------------------------------
      #    Occupation            Energy/Eh            Energy/eV
------------------------------------------------------------------
      1        2.0000           -1.3404203             -36.4747
    ...           ...                  ...                  ...
     96        2.0000           -0.3878592             -10.5542
     97        2.0000           -0.3864864             -10.5168
     98        2.0000           -0.3852327             -10.4827
     99        2.0000           -0.3807971             -10.3620
    100        2.0000           -0.3760724             -10.2335
    101        2.0000           -0.3701029             -10.0710
    102        2.0000           -0.3665869              -9.9753
    103        2.0000           -0.3651737              -9.9369
    104        2.0000           -0.3578011              -9.7363
    105        2.0000           -0.3558362              -9.6828
    106        2.0000           -0.3513672              -9.5612
    107        2.0000           -0.3482632              -9.4767
    108        2.0000           -0.3424465              -9.3184 (HOMO)
    109                          0.0093870               0.2554 (LUMO)
    110                          0.0222807               0.6063
    111                          0.0319441               0.8692
    112                          0.0393360               1.0704
    113                          0.0428930               1.1672
    114                          0.0463726               1.2619
    115                          0.0490715               1.3353
    116                          0.0701608               1.9092
    117                          0.1340320               3.6472
    118                          0.1461740               3.9776
    119                          0.1487310               4.0472
    ...                                ...                  ...
    194                          0.8435655              22.9546
------------------------------------------------------------------
               HL-Gap            0.3518335 Eh            9.5739 eV
------------------------------------------------------------------

Atomic charges and shell populations (in atomic units):
------------------------------------------------------
     #    Z                q          p(s)       p(p)
------------------------------------------------------
     1    7 N      -0.357234      1.383412   3.973821
     2    6 C      -0.040872      1.145386   2.895486
     3    6 C       0.404845      1.106644   2.488511
     4    8 O      -0.528249      1.855131   4.673118
     5    7 N      -0.329840      1.356122   3.973719
     6    6 C       0.040814      1.147480   2.811707
     7    6 C       0.416824      1.100857   2.482319
     8    6 C       0.028199      1.133229   2.838572
     9    8 O      -0.480803      1.854697   4.626106
    10    7 N      -0.342011      1.367983   3.974028
    11    6 C      -0.197392      1.145269   3.052123
    12    6 C       0.409702      1.096622   2.493675
    13    6 C       0.388397      1.095316   2.516287
    14    6 C       0.004190      1.179082   2.816727
    15    8 O      -0.554665      1.852464   4.702201
    16    8 O      -0.578934      1.861454   4.717480
    17    7 N      -0.382946      1.356123   4.026824
    18    7 N      -0.371883      1.373178   3.998705
    19    6 C      -0.089028      1.144192   2.944836
    20    6 C       0.416183      1.087320   2.496497
    21    6 C      -0.260364      1.165507   3.094857
    22    6 C      -0.263895      1.153293   3.110602
    23    6 C       0.022917      1.132707   2.844376
    24    8 O      -0.511762      1.854109   4.657653
    25    7 N      -0.276105      1.354114   3.921991
    26    6 C      -0.167770      1.133037   3.034733
    27    6 C       0.436109      1.101183   2.462708
    28    6 C      -0.002550      1.117564   2.884986
    29    8 O      -0.639597      1.856787   4.782810
    30    7 N      -0.341660      1.573813   3.767847
    31    6 C      -0.074223      1.139363   2.934860
    32    6 C       0.110227      1.117582   2.772190
    33    7 N      -0.244933      1.356090   3.888844
    34    6 C       0.051335      1.133711   2.814954
    35    8 O      -0.530410      1.801677   4.728733
    36    6 C      -0.110260      1.130242   2.980018
    37    6 C      -0.245414      1.156301   3.089113
    38    6 C      -0.182600      1.139039   3.043561
    39    6 C      -0.263195      1.159246   3.103949
    40    1 H       0.271031      0.728969
    41    1 H       0.146556      0.853444
    42    1 H       0.258192      0.741808
    43    1 H       0.125066      0.874934
    44    1 H       0.143115      0.856885
    45    1 H       0.274958      0.725042
    46    1 H       0.119240      0.880760
    47    1 H       0.127086      0.872914
    48    1 H       0.147763      0.852237
    49    1 H       0.262967      0.737033
    50    1 H       0.263789      0.736211
    51    1 H       0.271052      0.728948
    52    1 H       0.094342      0.905658
    53    1 H       0.107987      0.892013
    54    1 H       0.094466      0.905534
    55    1 H       0.087385      0.912615
    56    1 H       0.090524      0.909476
    57    1 H       0.096701      0.903299
    58    1 H       0.108977      0.891023
    59    1 H       0.110680      0.889320
    60    1 H       0.283197      0.716803
    61    1 H       0.117673      0.882327
    62    1 H       0.118681      0.881319
    63    1 H       0.128817      0.871183
    64    1 H       0.116723      0.883277
    65    1 H       0.273025      0.726975
    66    1 H       0.102290      0.897710
    67    1 H       0.083431      0.916569
    68    1 H       0.360174      0.639826
    69    1 H       0.115392      0.884608
    70    1 H       0.088088      0.911912
    71    1 H       0.098032      0.901968
    72    1 H       0.093152      0.906848
    73    1 H       0.083819      0.916181
    74    1 H       0.117389      0.882611
    75    1 H       0.064520      0.935480
    76    1 H       0.093431      0.906569
    77    1 H       0.099143      0.900857
------------------------------------------------------


Wiberg/Mayer (AO) data.
largest (>0.10) Wiberg bond orders for each atom

 ---------------------------------------------------------------------------
     #   Z sym  total        # sym  WBO       # sym  WBO       # sym  WBO
 ---------------------------------------------------------------------------
     1   7 N    3.263 --     7 C    1.169     2 C    0.976    40 O    0.882
                             9 C    0.149
     2   6 C    3.919 --     1 N    0.976    34 C    0.961    41 O    0.928
                             3 C    0.919
     3   6 C    3.876 --     4 C    1.667     5 N    1.216     2 C    0.919
     4   8 C    1.945 --     3 C    1.667     5 N    0.163
     5   7 N    3.329 --     3 C    1.216     6 C    0.959    42 O    0.889
                             4 C    0.163
     6   6 C    3.912 --     5 N    0.959    36 C    0.948    43 O    0.942
                            27 C    0.927
     7   6 C    3.875 --     9 C    1.722     1 N    1.169     8 C    0.925
     8   6 C    3.926 --    11 C    0.995    44 O    0.938    10 N    0.927
                             7 C    0.925
     9   8 C    2.002 --     7 C    1.722     1 N    0.149
    10   7 N    3.309 --    12 C    1.242     8 C    0.927    45 O    0.873
                            15 C    0.170
    11   6 C    3.961 --     8 C    0.995    13 C    0.965    46 O    0.949
                            47 O    0.945
    12   6 C    3.874 --    15 C    1.645    10 N    1.242    14 C    0.924
    13   6 C    3.890 --    16 C    1.587    17 N    1.305    11 C    0.965
    14   6 C    3.901 --    18 N    0.946    48 O    0.940    19 C    0.938
                            12 C    0.924
    15   8 C    1.930 --    12 C    1.645    10 N    0.170
    16   8 C    1.857 --    13 C    1.587    17 N    0.173
    17   7 N    3.323 --    13 C    1.305    50 O    0.906    49 O    0.904
                            16 C    0.173
    18   7 N    3.313 --    20 C    1.215    14 C    0.946    51 O    0.866
                            24 C    0.173
    19   6 C    3.970 --    22 C    1.024    21 C    1.015    52 O    0.946
                            14 C    0.938
    20   6 C    3.888 --    24 C    1.678    18 N    1.215    23 C    0.937
    21   6 C    3.958 --    19 C    1.015    55 O    0.972    53 O    0.968
                            54 O    0.953
    22   6 C    3.960 --    19 C    1.024    56 O    0.972    57 O    0.968
                            58 O    0.968
    23   6 C    3.931 --    26 C    0.988    59 O    0.948    25 N    0.937
                            20 C    0.937
    24   8 C    1.960 --    20 C    1.678    18 N    0.173
    25   7 N    3.409 --    27 C    1.337    23 C    0.937    60 O    0.892
                            29 C    0.156
    26   6 C    3.964 --    28 C    1.010    23 C    0.988    61 O    0.952
                            62 O    0.933
    27   6 C    3.856 --    29 C    1.521    25 N    1.337     6 C    0.927
    28   6 C    3.933 --    31 C    1.600    30 N    1.158    26 C    1.010
    29   8 C    1.830 --    27 C    1.521    25 N    0.156
    30   7 N    3.007 --    32 C    1.647    28 C    1.158
    31   6 C    3.909 --    28 C    1.600    33 N    1.200    63 O    0.948
    32   6 C    3.918 --    30 N    1.647    33 N    1.197    64 O    0.937
    33   7 N    3.496 --    31 C    1.200    32 C    1.197    65 O    0.894
    34   6 C    3.889 --    35 C    0.988     2 C    0.961    67 O    0.945
                            66 O    0.941
    35   8 C    1.922 --    34 C    0.988    68 O    0.851
    36   6 C    3.970 --    37 C    1.020    38 C    0.992     6 C    0.948
                            69 O    0.943
    37   6 C    3.961 --    36 C    1.020    72 O    0.969    71 O    0.969
                            70 O    0.967
    38   6 C    3.965 --    39 C    1.024    36 C    0.992    73 O    0.955
                            74 O    0.951
    39   6 C    3.963 --    38 C    1.024    75 O    0.975    77 O    0.973
                            76 O    0.967
    40   1 O    0.927 --     1 N    0.882
    41   1 O    0.979 --     2 C    0.928
    42   1 O    0.933 --     5 N    0.889
    43   1 O    0.984 --     6 C    0.942
    44   1 O    0.980 --     8 C    0.938
    45   1 O    0.924 --    10 N    0.873
    46   1 O    0.986 --    11 C    0.949
    47   1 O    0.984 --    11 C    0.945
    48   1 O    0.978 --    14 C    0.940
    49   1 O    0.931 --    17 N    0.904
    50   1 O    0.930 --    17 N    0.906
    51   1 O    0.927 --    18 N    0.866
    52   1 O    0.991 --    19 C    0.946
    53   1 O    0.988 --    21 C    0.968
    54   1 O    0.991 --    21 C    0.953
    55   1 O    0.992 --    21 C    0.972
    56   1 O    0.992 --    22 C    0.972
    57   1 O    0.991 --    22 C    0.968
    58   1 O    0.988 --    22 C    0.968
    59   1 O    0.988 --    23 C    0.948
    60   1 O    0.920 --    25 N    0.892
    61   1 O    0.986 --    26 C    0.952
    62   1 O    0.986 --    26 C    0.933
    63   1 O    0.983 --    31 C    0.948
    64   1 O    0.986 --    32 C    0.937
    65   1 O    0.925 --    33 N    0.894
    66   1 O    0.990 --    34 C    0.941
    67   1 O    0.993 --    34 C    0.945
    68   1 O    0.870 --    35 C    0.851
    69   1 O    0.987 --    36 C    0.943
    70   1 O    0.992 --    37 C    0.967
    71   1 O    0.990 --    37 C    0.969
    72   1 O    0.991 --    37 C    0.969
    73   1 O    0.993 --    38 C    0.955
    74   1 O    0.986 --    38 C    0.951
    75   1 O    0.996 --    39 C    0.975
    76   1 O    0.991 --    39 C    0.967
    77   1 O    0.990 --    39 C    0.973
 ---------------------------------------------------------------------------

Topologies differ in total number of bonds
Writing topology from bond orders to xtbtopo.mol

Atomic dipole moments (in atomic units):
---------------------------------------------------------
     #    Z                 x            y            z
---------------------------------------------------------
           total    -3.347104    -2.385004    -2.516521
---------------------------------------------------------
         |total|     4.819152    12.249063 Debye


           -------------------------------------------------
          | TOTAL ENERGY            -1902.075649945064 Eh   |
          | GRADIENT NORM               0.337629964403 Eh/α |
           -------------------------------------------------

------------------------------------------------------------------------
 * finished run on 2026/05/23 at 12:38:33.391     
------------------------------------------------------------------------
 total:
 * wall-time:     0 d,  0 h,  0 min, 12.613 sec
 *  cpu-time:     0 d,  0 h,  0 min, 23.516 sec
 * ratio c/w:     1.864 speedup
 SCF:
 * wall-time:     0 d,  0 h,  0 min, 12.162 sec
 *  cpu-time:     0 d,  0 h,  0 min, 23.199 sec
 * ratio c/w:     1.908 speedup

normal termination of xtb
