      -----------------------------------------------------------      
     |                   =====================                   |     
     |                           x T B                           |     
     |                   =====================                   |     
     |                         S. Grimme                         |     
     |          Mulliken Center for Theoretical Chemistry        |     
     |                    University of Bonn                     |     
      -----------------------------------------------------------      

   * xtb version 6.7.1 (26dd68d) compiled by 'froitzheim@fs7' on 2026-05-14

   xtb is free software: you can redistribute it and/or modify it under
   the terms of the GNU Lesser General Public License as published by
   the Free Software Foundation, either version 3 of the License, or
   (at your option) any later version.
   
   xtb is distributed in the hope that it will be useful,
   but WITHOUT ANY WARRANTY; without even the implied warranty of
   MERCHANTABILITY or FITNESS FOR A PARTICULAR PURPOSE.  See the
   GNU Lesser General Public License for more details.
   
   Cite this work as:
   * C. Bannwarth, E. Caldeweyher, S. Ehlert, A. Hansen, P. Pracht,
     J. Seibert, S. Spicher, S. Grimme, WIREs Comput. Mol. Sci., 2020, 11,
     e01493. DOI: 10.1002/wcms.1493
   
   for g-xTB:
   * T. Froitzheim, M. Müller, A. Hansen, S. Grimme, ChemRxiv, 2025, preprint.
     DOI: 10.26434/chemrxiv-2025-bjxv
   for GFN2-xTB:
   * C. Bannwarth, S. Ehlert and S. Grimme., J. Chem. Theory Comput., 2019,
     15, 1652-1671. DOI: 10.1021/acs.jctc.8b01176
   for GFN1-xTB:
   * S. Grimme, C. Bannwarth, P. Shushkov, J. Chem. Theory Comput., 2017,
     13, 1989-2009. DOI: 10.1021/acs.jctc.7b00118
   for GFN0-xTB:
   * P. Pracht, E. Caldeweyher, S. Ehlert, S. Grimme, ChemRxiv, 2019, preprint.
     DOI: 10.26434/chemrxiv.8326202.v1
   for GFN-FF:
   * S. Spicher and S. Grimme, Angew. Chem. Int. Ed., 2020, 59, 15665-15673.
     DOI: 10.1002/anie.202004239
   
   for ALPB and GBSA implicit solvation:
   * S. Ehlert, M. Stahn, S. Spicher, S. Grimme, J. Chem. Theory Comput.,
     2021, 17, 4250-4261. DOI: 10.1021/acs.jctc.1c00471
   
   for ddCOSMO and CPCM-X implicit solvation:
   * M. Stahn, S. Ehlert, S. Grimme, J. Phys. Chem. A,
     2023, XX, XXXX-XXXX. DOI: 10.1021/acs.jpca.3c04382
   
   for DFT-D4:
   * E. Caldeweyher, C. Bannwarth and S. Grimme, J. Chem. Phys., 2017,
     147, 034112. DOI: 10.1063/1.4993215
   * E. Caldeweyher, S. Ehlert, A. Hansen, H. Neugebauer, S. Spicher,
     C. Bannwarth and S. Grimme, J. Chem. Phys., 2019, 150, 154122.
     DOI: 10.1063/1.5090222
   * E. Caldeweyher, J.-M. Mewes, S. Ehlert and S. Grimme, Phys. Chem. Chem. Phys.
     2020, 22, 8499-8512. DOI: 10.1039/D0CP00502A
   
   for sTDA-xTB:
   * S. Grimme and C. Bannwarth, J. Chem. Phys., 2016, 145, 054103.
     DOI: 10.1063/1.4959605
   
   in the mass-spec context:
   * V. Asgeirsson, C. Bauer and S. Grimme, Chem. Sci., 2017, 8, 4879.
     DOI: 10.1039/c7sc00601b
   * J. Koopman and S. Grimme, ACS Omega 2019, 4, 12, 15120-15133.
     DOI: 10.1021/acsomega.9b02011
   
   for metadynamics refer to:
   * S. Grimme, J. Chem. Theory Comput., 2019, 155, 2847-2862
     DOI: 10.1021/acs.jctc.9b00143
   
   for SPH calculations refer to:
   * S. Spicher and S. Grimme, J. Chem. Theory Comput., 2021, 17, 1701-1714
     DOI: 10.1021/acs.jctc.0c01306
   
   for ONIOM refer to:
   * C. Plett, A. Katbashev, S. Ehlert, S. Grimme, M. Bursch,
     Phys. Chem. Chem. Phys., 2023, 25, 17860-17868. DOI: 10.1039/D3CP02178E
   
   for DIPRO refer to:
   * J. Kohn, N. Gildemeister, S. Grimme, D. Fazzi, A. Hansen,
     J. Chem. Phys. 159, 144106 (2023). DOI: 10.1063/5.0167484
   
   for PTB refer to:
   * S. Grimme, M. Mueller, A. Hansen, J. Chem. Phys., 2023, 158, 124111.
     DOI: 10.1063/5.0137838
   
   with help from (in alphabetical order)
   P. Atkinson, C. Bannwarth, F. Bohle, G. Brandenburg, E. Caldeweyher,
   M. Checinski, S. Dohm, S. Ehlert, S. Ehrlich, M. Friede, T. Froitzheim,
   I. Gerasimov, C. Hölzer, A. Katbashev, J. Kohn, J. Koopman, C. Lavigne,
   S. Lehtola, F. März, M. Müller, F. Musil, H. Neugebauer, J. Pisarek,
   C. Plett, P. Pracht, F. Pultar, J. Seibert, P. Shushkov, S. Spicher,
   M. Stahn, M. Steiner, T. Strunk, J. Stückrath, T. Rose, and J. Unsleber
   
 * started run on 2026/05/23 at 12:46:56.326     
   ID    Z sym.   atoms
    1    7 N      1, 5, 10, 17, 22, 26, 27, 33, 41
    2    6 C      2, 3, 6-8, 11-14, 16, 18-21, 23, 28-30, 34-39
    3    8 O      4, 9, 15, 24, 25, 31, 32, 40
    4    1 H      42-82

           -------------------------------------------------
          |                Calculation Setup                |
           -------------------------------------------------

          program call               : /home/xchen/software/xtb-6.7.1-gxtb/bin/xtb /home/xchen/Test/benchmark/md_sampled/09_5_0584_0/snap_0182.xyz --charge 0 --gxtb --norestart
          coordinate file            : /home/xchen/Test/benchmark/md_sampled/09_5_0584_0/snap_0182.xyz
          omp threads                :                    48

core increment energy         -1.8448408193529E+03 Eh
dispersion energy              1.5586677038373E-02 Eh
molecular charge               0.0000000000000E+00 e
number of electrons            2.2999999999795E+02 e
number of unpaired electrons   0.0000000000000E+00 e
wavefunction                   restricted
integral cutoff                2.6907767250513E+01 bohr
energy convergence             1.0000000000000E-06 Eh
density convergence            2.0000000000000E-05 e

------------------------------------------------------------
  cycle        total energy    energy error   density error
------------------------------------------------------------
      1     -2032.860250265  -1.8803502E+02   0.0000000E+00
      2     -2033.204545289  -3.4429502E-01   2.2392346E-02
      3     -2033.429394349  -2.2484906E-01   1.7861399E-02
      4     -2033.917106599  -4.8771225E-01   1.4263020E-02
      5     -2033.924822720  -7.7161206E-03   1.1122995E-03
      6     -2033.925424533  -6.0181373E-04   2.4193935E-04
      7     -2033.925479588  -5.5054679E-05   8.5742578E-05
      8     -2033.925483773  -4.1846166E-06   2.1703362E-05
      9     -2033.925484248  -4.7537907E-07   4.1965543E-06
------------------------------------------------------------

electronic energy             -1.8910025157224E+02 Eh
total energy                  -2.0339254842481E+03 Eh

Post processing:
 | Mayer-Wiberg bond orders
 | Molecular Multipole Moments

 total:                                  14.802 sec
 - increment                              0.000 sec (  0%)
 - repulsion                              0.127 sec (  0%)
 - dispersion                             0.562 sec (  3%)
 - coulomb                                0.145 sec (  0%)
 - exchange                               0.015 sec (  0%)
 - hamiltonian                            0.451 sec (  3%)
 - acp                                    0.310 sec (  2%)
 - spin polarization                      0.000 sec (  0%)
 - post processing                        0.098 sec (  0%)
 - scc                                   11.800 sec ( 79%)
 - coulomb gradient                       0.159 sec (  1%)
 - dispersion gradient                    0.057 sec (  0%)
 - exchange gradient                      0.147 sec (  0%)
 - repulsion gradient                     0.041 sec (  0%)
 - acp gradient                           0.398 sec (  2%)
 - hamiltonian gradient                   0.547 sec (  3%)
 - gradient                               1.349 sec (  9%)

         :::::::::::::::::::::::::::::::::::::::::::::::::::::
         ::                     SUMMARY                     ::
         :::::::::::::::::::::::::::::::::::::::::::::::::::::
         :: total energy           -2033.925484248102 Eh    ::
         :: gradient norm              0.357242611112 Eh/a0 ::
         :: HOMO-LUMO gap              9.405892939528 eV    ::
         ::.................................................::
         :: add. restraining           0.000000000000 Eh    ::
         :: total charge              -0.000000000000 e     ::
         :::::::::::::::::::::::::::::::::::::::::::::::::::::

           -------------------------------------------------
          |                Property Printout                |
           -------------------------------------------------

    * Orbital Energies and Occupations
------------------------------------------------------------------
      #    Occupation            Energy/Eh            Energy/eV
------------------------------------------------------------------
      1        2.0000           -1.3410583             -36.4921
    ...           ...                  ...                  ...
    103        2.0000           -0.3927930             -10.6884
    104        2.0000           -0.3905715             -10.6280
    105        2.0000           -0.3885850             -10.5739
    106        2.0000           -0.3849333             -10.4746
    107        2.0000           -0.3743081             -10.1854
    108        2.0000           -0.3704732             -10.0811
    109        2.0000           -0.3651966              -9.9375
    110        2.0000           -0.3646260              -9.9220
    111        2.0000           -0.3612995              -9.8315
    112        2.0000           -0.3580861              -9.7440
    113        2.0000           -0.3564715              -9.7001
    114        2.0000           -0.3542897              -9.6407
    115        2.0000           -0.3459589              -9.4140 (HOMO)
    116                         -0.0002987              -0.0081 (LUMO)
    117                          0.0146395               0.3984
    118                          0.0174458               0.4747
    119                          0.0222929               0.6066
    120                          0.0324446               0.8829
    121                          0.0348276               0.9477
    122                          0.0389440               1.0597
    123                          0.0499964               1.3605
    124                          0.1431199               3.8945
    125                          0.1451853               3.9507
    126                          0.1595704               4.3421
    ...                                ...                  ...
    205                          0.7163073              19.4917
------------------------------------------------------------------
               HL-Gap            0.3456602 Eh            9.4059 eV
------------------------------------------------------------------

Atomic charges and shell populations (in atomic units):
------------------------------------------------------
     #    Z                q          p(s)       p(p)
------------------------------------------------------
     1    7 N      -0.340348      1.367174   3.973174
     2    6 C       0.013306      1.113651   2.873043
     3    6 C       0.406037      1.105380   2.488583
     4    8 O      -0.572356      1.855283   4.717073
     5    7 N      -0.299307      1.356392   3.942915
     6    6 C      -0.004232      1.144432   2.859800
     7    6 C       0.427526      1.108094   2.464380
     8    6 C       0.000466      1.115624   2.883910
     9    8 O      -0.512199      1.862075   4.650124
    10    7 N      -0.354906      1.365224   3.989682
    11    6 C      -0.163962      1.166568   2.997394
    12    6 C       0.414301      1.109572   2.476127
    13    6 C      -0.173686      1.157541   3.016145
    14    6 C      -0.001200      1.155227   2.845973
    15    8 O      -0.499088      1.850218   4.648870
    16    6 C      -0.229312      1.152731   3.076581
    17    7 N      -0.292237      1.348136   3.944101
    18    6 C      -0.225525      1.161699   3.063826
    19    6 C      -0.060690      1.118959   2.941731
    20    6 C       0.412506      1.100913   2.486581
    21    6 C       0.406789      1.098685   2.494526
    22    7 N      -0.493689      1.423428   4.070261
    23    6 C       0.009661      1.109882   2.880457
    24    8 O      -0.595108      1.858040   4.737068
    25    8 O      -0.521355      1.853202   4.668152
    26    7 N      -0.430031      1.401669   4.028362
    27    7 N      -0.354950      1.379189   3.975761
    28    6 C      -0.167852      1.157557   3.010295
    29    6 C       0.418791      1.117105   2.464105
    30    6 C       0.387977      1.131271   2.480752
    31    8 O      -0.488415      1.851399   4.637016
    32    8 O      -0.512422      1.863334   4.649088
    33    7 N      -0.455137      1.431313   4.023825
    34    6 C      -0.111887      1.114358   2.997529
    35    6 C      -0.278217      1.162989   3.115228
    36    6 C      -0.237215      1.169245   3.067971
    37    6 C      -0.181232      1.138987   3.042245
    38    6 C      -0.181569      1.154558   3.027011
    39    6 C       0.396759      1.106772   2.496469
    40    8 O      -0.543789      1.853739   4.690049
    41    7 N      -0.417673      1.361175   4.056498
    42    1 H       0.283178      0.716822
    43    1 H       0.118543      0.881457
    44    1 H       0.260559      0.739441
    45    1 H       0.126286      0.873714
    46    1 H       0.127429      0.872571
    47    1 H       0.265515      0.734485
    48    1 H       0.097918      0.902082
    49    1 H       0.107528      0.892472
    50    1 H       0.099445      0.900555
    51    1 H       0.092605      0.907395
    52    1 H       0.126499      0.873501
    53    1 H       0.076853      0.923147
    54    1 H       0.111412      0.888588
    55    1 H       0.283835      0.716165
    56    1 H       0.156802      0.843198
    57    1 H       0.112020      0.887980
    58    1 H       0.070905      0.929095
    59    1 H       0.099001      0.900999
    60    1 H       0.209550      0.790450
    61    1 H       0.215990      0.784010
    62    1 H       0.144677      0.855323
    63    1 H       0.262842      0.737158
    64    1 H       0.247993      0.752007
    65    1 H       0.286680      0.713320
    66    1 H       0.121035      0.878965
    67    1 H       0.147419      0.852581
    68    1 H       0.241010      0.758990
    69    1 H       0.254806      0.745194
    70    1 H       0.118205      0.881795
    71    1 H       0.089192      0.910808
    72    1 H       0.115422      0.884578
    73    1 H       0.099251      0.900749
    74    1 H       0.084894      0.915106
    75    1 H       0.088790      0.911210
    76    1 H       0.076625      0.923375
    77    1 H       0.115322      0.884678
    78    1 H       0.119233      0.880767
    79    1 H       0.118550      0.881450
    80    1 H       0.125177      0.874823
    81    1 H       0.256800      0.743200
    82    1 H       0.249670      0.750330
------------------------------------------------------


Wiberg/Mayer (AO) data.
largest (>0.10) Wiberg bond orders for each atom

 ---------------------------------------------------------------------------
     #   Z sym  total        # sym  WBO       # sym  WBO       # sym  WBO
 ---------------------------------------------------------------------------
     1   7 N    3.301 --     7 C    1.173     2 C    0.983    42 O    0.873
                             9 C    0.164
     2   6 C    3.945 --     1 N    0.983    34 C    0.967    43 O    0.939
                             3 C    0.919
     3   6 C    3.867 --     4 C    1.594     5 N    1.278     2 C    0.919
     4   8 C    1.904 --     3 C    1.594     5 N    0.162
     5   7 N    3.381 --     3 C    1.278     6 C    0.949    44 O    0.897
                             4 C    0.162
     6   6 C    3.920 --    37 C    0.986     5 N    0.949    45 O    0.946
                            29 C    0.891
     7   6 C    3.872 --     9 C    1.684     1 N    1.173     8 C    0.937
     8   6 C    3.931 --    11 C    0.989    10 N    0.950     7 C    0.937
                            46 O    0.937
     9   8 C    1.960 --     7 C    1.684     1 N    0.164
    10   7 N    3.293 --    12 C    1.198     8 C    0.950    47 O    0.888
                            15 C    0.159
    11   6 C    3.957 --     8 C    0.989    13 C    0.988    48 O    0.956
                            49 O    0.953
    12   6 C    3.866 --    15 C    1.714    10 N    1.198    14 C    0.886
    13   6 C    3.964 --    16 C    1.009    11 C    0.988    51 O    0.964
                            50 O    0.960
    14   6 C    3.924 --    18 C    0.975    17 N    0.958    52 O    0.951
                            12 C    0.886
    15   8 C    2.002 --    12 C    1.714    10 N    0.159
    16   6 C    3.963 --    13 C    1.009    19 C    0.993    53 O    0.958
                            54 O    0.951
    17   7 N    3.393 --    20 C    1.295    14 C    0.958    55 O    0.889
                            24 C    0.158
    18   6 C    3.949 --    14 C    0.975    21 C    0.957    57 O    0.956
                            56 O    0.920
    19   6 C    3.957 --    22 N    1.042    16 C    0.993    59 O    0.954
                            58 O    0.947
    20   6 C    3.867 --    24 C    1.567    17 N    1.295    23 C    0.925
    21   6 C    3.879 --    25 C    1.688    26 N    1.199    18 C    0.957
    22   7 N    2.968 --    19 C    1.042    61 O    0.934    60 O    0.933
    23   6 C    3.942 --    27 N    0.994    28 C    0.957    62 O    0.935
                            20 C    0.925
    24   8 C    1.866 --    20 C    1.567    17 N    0.158
    25   8 C    1.958 --    21 C    1.688    26 N    0.155
    26   7 N    3.213 --    21 C    1.199    64 O    0.913    63 O    0.906
                            25 C    0.155
    27   7 N    3.264 --    29 C    1.141    23 C    0.994    65 O    0.869
                            31 C    0.154
    28   6 C    3.951 --    30 C    0.972    66 O    0.957    23 C    0.957
                            67 O    0.934
    29   6 C    3.857 --    31 C    1.746    27 N    1.141     6 C    0.891
    30   6 C    3.860 --    32 C    1.711    33 N    1.138    28 C    0.972
    31   8 C    2.018 --    29 C    1.746    27 N    0.154
    32   8 C    1.957 --    30 C    1.711    33 N    0.145
    33   7 N    3.156 --    30 C    1.138    68 O    0.916    69 O    0.915
                            32 C    0.145
    34   6 C    3.976 --    35 C    1.008    36 C    1.005     2 C    0.967
                            70 O    0.939
    35   6 C    3.957 --    34 C    1.008    73 O    0.972    72 O    0.971
                            71 O    0.969
    36   6 C    3.959 --    34 C    1.005    76 O    0.976    75 O    0.972
                            74 O    0.969
    37   6 C    3.960 --    38 C    1.004     6 C    0.986    77 O    0.952
                            78 O    0.950
    38   6 C    3.958 --    37 C    1.004    80 O    0.954    79 O    0.951
                            39 C    0.941
    39   6 C    3.871 --    40 C    1.661    41 N    1.233    38 C    0.941
    40   8 C    1.932 --    39 C    1.661    41 N    0.167
    41   7 N    3.258 --    39 C    1.233    82 O    0.912    81 O    0.910
                            40 C    0.167
    42   1 O    0.920 --     1 N    0.873
    43   1 O    0.986 --     2 C    0.939
    44   1 O    0.932 --     5 N    0.897
    45   1 O    0.984 --     6 C    0.946
    46   1 O    0.984 --     8 C    0.937
    47   1 O    0.930 --    10 N    0.888
    48   1 O    0.990 --    11 C    0.956
    49   1 O    0.988 --    11 C    0.953
    50   1 O    0.990 --    13 C    0.960
    51   1 O    0.991 --    13 C    0.964
    52   1 O    0.984 --    14 C    0.951
    53   1 O    0.994 --    16 C    0.958
    54   1 O    0.988 --    16 C    0.951
    55   1 O    0.919 --    17 N    0.889
    56   1 O    0.975 --    18 C    0.920
    57   1 O    0.987 --    18 C    0.956
    58   1 O    0.995 --    19 C    0.947
    59   1 O    0.990 --    19 C    0.954
    60   1 O    0.956 --    22 N    0.933
    61   1 O    0.953 --    22 N    0.934
    62   1 O    0.979 --    23 C    0.935
    63   1 O    0.931 --    26 N    0.906
    64   1 O    0.938 --    26 N    0.913
    65   1 O    0.918 --    27 N    0.869
    66   1 O    0.985 --    28 C    0.957
    67   1 O    0.978 --    28 C    0.934
    68   1 O    0.942 --    33 N    0.916
    69   1 O    0.935 --    33 N    0.915
    70   1 O    0.986 --    34 C    0.939
    71   1 O    0.992 --    35 C    0.969
    72   1 O    0.987 --    35 C    0.971
    73   1 O    0.990 --    35 C    0.972
    74   1 O    0.993 --    36 C    0.969
    75   1 O    0.992 --    36 C    0.972
    76   1 O    0.994 --    36 C    0.976
    77   1 O    0.987 --    37 C    0.952
    78   1 O    0.986 --    37 C    0.950
    79   1 O    0.986 --    38 C    0.951
    80   1 O    0.984 --    38 C    0.954
    81   1 O    0.934 --    41 N    0.910
    82   1 O    0.938 --    41 N    0.912
 ---------------------------------------------------------------------------

Topologies differ in total number of bonds
Writing topology from bond orders to xtbtopo.mol

Atomic dipole moments (in atomic units):
---------------------------------------------------------
     #    Z                 x            y            z
---------------------------------------------------------
           total    -2.135289     2.583245    -1.626448
---------------------------------------------------------
         |total|     3.725312     9.468798 Debye


           -------------------------------------------------
          | TOTAL ENERGY            -2033.925484248102 Eh   |
          | GRADIENT NORM               0.357242611112 Eh/α |
           -------------------------------------------------

------------------------------------------------------------------------
 * finished run on 2026/05/23 at 12:47:12.230     
------------------------------------------------------------------------
 total:
 * wall-time:     0 d,  0 h,  0 min, 15.903 sec
 *  cpu-time:     0 d,  0 h,  0 min, 23.424 sec
 * ratio c/w:     1.473 speedup
 SCF:
 * wall-time:     0 d,  0 h,  0 min, 15.196 sec
 *  cpu-time:     0 d,  0 h,  0 min, 22.796 sec
 * ratio c/w:     1.500 speedup

normal termination of xtb
