      -----------------------------------------------------------      
     |                   =====================                   |     
     |                           x T B                           |     
     |                   =====================                   |     
     |                         S. Grimme                         |     
     |          Mulliken Center for Theoretical Chemistry        |     
     |                    University of Bonn                     |     
      -----------------------------------------------------------      

   * xtb version 6.7.1 (edcfbbe) compiled by 'albert@albert-system' on 2024-07-22

   xtb is free software: you can redistribute it and/or modify it under
   the terms of the GNU Lesser General Public License as published by
   the Free Software Foundation, either version 3 of the License, or
   (at your option) any later version.
   
   xtb is distributed in the hope that it will be useful,
   but WITHOUT ANY WARRANTY; without even the implied warranty of
   MERCHANTABILITY or FITNESS FOR A PARTICULAR PURPOSE.  See the
   GNU Lesser General Public License for more details.
   
   Cite this work as:
   * C. Bannwarth, E. Caldeweyher, S. Ehlert, A. Hansen, P. Pracht,
     J. Seibert, S. Spicher, S. Grimme, WIREs Comput. Mol. Sci., 2020, 11,
     e01493. DOI: 10.1002/wcms.1493
   
   for GFN2-xTB:
   * C. Bannwarth, S. Ehlert and S. Grimme., J. Chem. Theory Comput., 2019,
     15, 1652-1671. DOI: 10.1021/acs.jctc.8b01176
   for GFN1-xTB:
   * S. Grimme, C. Bannwarth, P. Shushkov, J. Chem. Theory Comput., 2017,
     13, 1989-2009. DOI: 10.1021/acs.jctc.7b00118
   for GFN0-xTB:
   * P. Pracht, E. Caldeweyher, S. Ehlert, S. Grimme, ChemRxiv, 2019, preprint.
     DOI: 10.26434/chemrxiv.8326202.v1
   for GFN-FF:
   * S. Spicher and S. Grimme, Angew. Chem. Int. Ed., 2020, 59, 15665-15673.
     DOI: 10.1002/anie.202004239
   
   for ALPB and GBSA implicit solvation:
   * S. Ehlert, M. Stahn, S. Spicher, S. Grimme, J. Chem. Theory Comput.,
     2021, 17, 4250-4261. DOI: 10.1021/acs.jctc.1c00471
   
   for ddCOSMO and CPCM-X implicit solvation:
   * M. Stahn, S. Ehlert, S. Grimme, J. Phys. Chem. A,
     2023, XX, XXXX-XXXX. DOI: 10.1021/acs.jpca.3c04382
   
   for DFT-D4:
   * E. Caldeweyher, C. Bannwarth and S. Grimme, J. Chem. Phys., 2017,
     147, 034112. DOI: 10.1063/1.4993215
   * E. Caldeweyher, S. Ehlert, A. Hansen, H. Neugebauer, S. Spicher,
     C. Bannwarth and S. Grimme, J. Chem. Phys., 2019, 150, 154122.
     DOI: 10.1063/1.5090222
   * E. Caldeweyher, J.-M. Mewes, S. Ehlert and S. Grimme, Phys. Chem. Chem. Phys.
     2020, 22, 8499-8512. DOI: 10.1039/D0CP00502A
   
   for sTDA-xTB:
   * S. Grimme and C. Bannwarth, J. Chem. Phys., 2016, 145, 054103.
     DOI: 10.1063/1.4959605
   
   in the mass-spec context:
   * V. Asgeirsson, C. Bauer and S. Grimme, Chem. Sci., 2017, 8, 4879.
     DOI: 10.1039/c7sc00601b
   * J. Koopman and S. Grimme, ACS Omega 2019, 4, 12, 15120-15133.
     DOI: 10.1021/acsomega.9b02011
   
   for metadynamics refer to:
   * S. Grimme, J. Chem. Theory Comput., 2019, 155, 2847-2862
     DOI: 10.1021/acs.jctc.9b00143
   
   for SPH calculations refer to:
   * S. Spicher and S. Grimme, J. Chem. Theory Comput., 2021, 17, 1701-1714
     DOI: 10.1021/acs.jctc.0c01306
   
   for ONIOM refer to:
   * C. Plett, A. Katbashev, S. Ehlert, S. Grimme, M. Bursch,
     Phys. Chem. Chem. Phys., 2023, 25, 17860-17868. DOI: 10.1039/D3CP02178E
   
   for DIPRO refer to:
   * J. Kohn, N. Gildemeister, S. Grimme, D. Fazzi, A. Hansen,
     J. Chem. Phys., 2023, just accepted.
   
   for PTB refer to:
   * S. Grimme, M. Mueller, A. Hansen, J. Chem. Phys., 2023, 158, 124111.
     DOI: 10.1063/5.0137838
   
   with help from (in alphabetical order)
   P. Atkinson, C. Bannwarth, F. Bohle, G. Brandenburg, E. Caldeweyher
   M. Checinski, S. Dohm, S. Ehlert, S. Ehrlich, I. Gerasimov, C. Hölzer
   A. Katbashev, J. Kohn, J. Koopman, C. Lavigne, S. Lehtola, F. März, M. Müller,
   F. Musil, H. Neugebauer, J. Pisarek, C. Plett, P. Pracht, F. Pultar,
   J. Seibert, P. Shushkov, S. Spicher, M. Stahn, M. Steiner, T. Strunk,
   J. Stückrath, T. Rose, and J. Unsleber
   
 * started run on 2026/05/23 at 12:57:55.010     
   ID    Z sym.   atoms
    1    7 N      1, 5, 10, 17, 27, 34, 39, 43, 54, 56, 57
    2    6 C      2, 3, 6-8, 11-14, 16, 18, 21-23, 28-31, 33, 35-38, 40,
                  44-48, 50-53, 55, 58
    3    8 O      4, 9, 15, 19, 20, 24-26, 32, 41, 49
    4   16 S      42
    5    1 H      59-117

           -------------------------------------------------
          |                Calculation Setup                |
           -------------------------------------------------

          program call               : /home/xchen/software/xtb-6.7.1/xtb-dist/bin/xtb /home/xchen/Test/benchmark/md_sampled/04_7_0231_n2/snap_0147.xyz --charge -2 --gfn 2 --norestart
          coordinate file            : /home/xchen/Test/benchmark/md_sampled/04_7_0231_n2/snap_0147.xyz
          omp threads                :                    48


           -------------------------------------------------
          |                 G F N 2 - x T B                 |
           -------------------------------------------------

        Reference                      10.1021/acs.jctc.8b01176
      * Hamiltonian:
        H0-scaling (s, p, d)           1.850000    2.230000    2.230000
        zeta-weighting                 0.500000
      * Dispersion:
        s8                             2.700000
        a1                             0.520000
        a2                             5.000000
        s9                             5.000000
      * Repulsion:
        kExp                           1.500000    1.000000
        rExp                           1.000000
      * Coulomb:
        alpha                          2.000000
        third order                    shell-resolved
        anisotropic                    true
        a3                             3.000000
        a5                             4.000000
        cn-shift                       1.200000
        cn-exp                         4.000000
        max-rad                        5.000000


          ...................................................
          :                      SETUP                      :
          :.................................................:
          :  # basis functions                 297          :
          :  # atomic orbitals                 296          :
          :  # shells                          176          :
          :  # electrons                       328          :
          :  max. iterations                   250          :
          :  Hamiltonian                  GFN2-xTB          :
          :  restarted?                      false          :
          :  GBSA solvation                  false          :
          :  PC potential                    false          :
          :  electronic temp.          300.0000000     K    :
          :  accuracy                    1.0000000          :
          :  -> integral cutoff          0.2500000E+02      :
          :  -> integral neglect         0.1000000E-07      :
          :  -> SCF convergence          0.1000000E-05 Eh   :
          :  -> wf. convergence          0.1000000E-03 e    :
          :  Broyden damping             0.4000000          :
          :  net charge                         -2          :
          :  unpaired electrons                  0          :
          ...................................................

 iter      E             dE          RMSdq      gap      omega  full diag
   1   -187.0076153 -0.187008E+03  0.415E+00    3.79       0.0  T
   2   -187.5097661 -0.502151E+00  0.220E+00    2.49       1.0  T
   3   -187.5424918 -0.327257E-01  0.119E+00    1.43       1.0  T
   4   -187.5341415  0.835036E-02  0.343E-01    0.11       1.0  T
   5   -187.5514313 -0.172898E-01  0.200E-01    1.26       1.0  T
   6   -187.5541430 -0.271177E-02  0.950E-02    1.03       1.0  T
   7   -187.5543749 -0.231897E-03  0.586E-02    0.81       1.0  T
   8   -187.5545440 -0.169063E-03  0.271E-02    0.54       1.0  T
   9   -187.5545668 -0.228659E-04  0.106E-02    0.42       1.0  T
  10   -187.5545703 -0.343438E-05  0.317E-03    0.38       2.9  T
  11   -187.5545704 -0.128814E-06  0.131E-03    0.38       7.1  T
  12   -187.5545705 -0.697164E-07  0.489E-04    0.38      18.9  T
  13   -187.5545705 -0.997107E-08  0.225E-04    0.37      41.1  T

   *** convergence criteria satisfied after 13 iterations ***

         #    Occupation            Energy/Eh            Energy/eV
      -------------------------------------------------------------
         1        2.0000           -0.6014534             -16.3664
       ...           ...                  ...                  ...
       158        2.0000           -0.2208410              -6.0094
       159        2.0000           -0.2183032              -5.9403
       160        2.0000           -0.2162617              -5.8848
       161        2.0000           -0.2143941              -5.8340
       162        2.0000           -0.1520256              -4.1368
       163        2.0000           -0.1418857              -3.8609
       164        1.9986           -0.1221364              -3.3235 (HOMO)
       165        0.0014           -0.1083562              -2.9485 (LUMO)
       166                         -0.0974120              -2.6507
       167                         -0.0906057              -2.4655
       168                         -0.0851733              -2.3177
       169                         -0.0802765              -2.1844
       ...                                ...                  ...
       296                          0.8953344              24.3633
      -------------------------------------------------------------
                  HL-Gap            0.0137803 Eh            0.3750 eV
             Fermi-level           -0.1152463 Eh           -3.1360 eV

 SCC (total)                   0 d,  0 h,  0 min, 14.102 sec
 SCC setup                      ...        0 min,  0.019 sec (  0.132%)
 Dispersion                     ...        0 min,  0.079 sec (  0.558%)
 classical contributions        ...        0 min,  0.004 sec (  0.029%)
 integral evaluation            ...        0 min,  0.343 sec (  2.430%)
 iterations                     ...        0 min, 13.014 sec ( 92.286%)
 molecular gradient             ...        0 min,  0.632 sec (  4.479%)
 printout                       ...        0 min,  0.012 sec (  0.086%)

         :::::::::::::::::::::::::::::::::::::::::::::::::::::
         ::                     SUMMARY                     ::
         :::::::::::::::::::::::::::::::::::::::::::::::::::::
         :: total energy            -185.528657891338 Eh    ::
         :: gradient norm              0.393999791110 Eh/a0 ::
         :: HOMO-LUMO gap              0.374980646310 eV    ::
         ::.................................................::
         :: SCC energy              -187.548357093285 Eh    ::
         :: -> isotropic ES            0.708364215632 Eh    ::
         :: -> anisotropic ES          0.016714747856 Eh    ::
         :: -> anisotropic XC          0.062863804438 Eh    ::
         :: -> dispersion             -0.138123007018 Eh    ::
         :: repulsion energy           2.019699201948 Eh    ::
         :: add. restraining           0.000000000000 Eh    ::
         :: total charge              -1.999999999999 e     ::
         :::::::::::::::::::::::::::::::::::::::::::::::::::::

           -------------------------------------------------
          |                Property Printout                |
           -------------------------------------------------

    * Orbital Energies and Occupations

         #    Occupation            Energy/Eh            Energy/eV
      -------------------------------------------------------------
         1        2.0000           -0.6014534             -16.3664
       ...           ...                  ...                  ...
       152        2.0000           -0.2413808              -6.5683
       153        2.0000           -0.2410094              -6.5582
       154        2.0000           -0.2383541              -6.4859
       155        2.0000           -0.2377811              -6.4704
       156        2.0000           -0.2277919              -6.1985
       157        2.0000           -0.2269360              -6.1752
       158        2.0000           -0.2208410              -6.0094
       159        2.0000           -0.2183032              -5.9403
       160        2.0000           -0.2162617              -5.8848
       161        2.0000           -0.2143941              -5.8340
       162        2.0000           -0.1520256              -4.1368
       163        2.0000           -0.1418857              -3.8609
       164        1.9986           -0.1221364              -3.3235 (HOMO)
       165        0.0014           -0.1083562              -2.9485 (LUMO)
       166                         -0.0974120              -2.6507
       167                         -0.0906057              -2.4655
       168                         -0.0851733              -2.3177
       169                         -0.0802765              -2.1844
       170                         -0.0786405              -2.1399
       171                         -0.0735356              -2.0010
       172                         -0.0703939              -1.9155
       173                         -0.0527994              -1.4367
       174                         -0.0365799              -0.9954
       175                         -0.0249458              -0.6788
       ...                                ...                  ...
       296                          0.8953344              24.3633
      -------------------------------------------------------------
                  HL-Gap            0.0137803 Eh            0.3750 eV
             Fermi-level           -0.1152463 Eh           -3.1360 eV

     #   Z          covCN         q      C6AA      α(0)
     1   7 N        2.681    -0.225    25.922     7.562
     2   6 C        3.787     0.028    20.118     6.388
     3   6 C        2.757     0.280    22.268     7.727
     4   8 O        0.856    -0.448    22.663     6.383
     5   7 N        2.690    -0.181    24.922     7.414
     6   6 C        3.803     0.007    20.457     6.439
     7   6 C        2.745     0.269    22.461     7.760
     8   6 C        3.787     0.020    20.259     6.411
     9   8 O        0.858    -0.451    22.727     6.392
    10   7 N        2.682    -0.178    24.862     7.405
    11   6 C        3.808    -0.031    21.129     6.543
    12   6 C        2.746     0.266    22.509     7.768
    13   6 C        3.797    -0.076    21.959     6.672
    14   6 C        3.790     0.025    20.164     6.395
    15   8 O        0.858    -0.488    23.526     6.503
    16   6 C        2.685     0.358    20.916     7.484
    17   7 N        1.917    -0.430    32.225     8.417
    18   6 C        3.768    -0.107    22.585     6.773
    19   8 O        0.855    -0.616    26.526     6.905
    20   8 O        0.859    -0.580    25.636     6.788
    21   6 C        2.790     0.274    22.375     7.748
    22   6 C        2.679     0.367    20.777     7.459
    23   6 C        3.810     0.021    20.211     6.399
    24   8 O        0.856    -0.594    25.977     6.833
    25   8 O        0.856    -0.443    22.566     6.369
    26   8 O        1.634    -0.385    20.565     6.121
    27   7 N        2.701    -0.198    25.302     7.471
    28   6 C        3.810    -0.048    21.432     6.590
    29   6 C        2.743     0.257    22.665     7.795
    30   6 C        3.810    -0.054    21.542     6.607
    31   6 C        3.799     0.027    20.126     6.388
    32   8 O        0.856    -0.434    22.367     6.341
    33   6 C        3.794    -0.071    21.856     6.657
    34   7 N        2.698    -0.202    25.396     7.485
    35   6 C        3.828    -0.068    21.772     6.639
    36   6 C        3.722     0.007    20.565     6.476
    37   6 C        2.748     0.280    22.265     7.726
    38   6 C        3.781    -0.008    20.749     6.489
    39   7 N        2.618    -0.355    29.149     8.018
    40   6 C        3.799     0.013    20.361     6.425
    41   8 O        0.856    -0.443    22.552     6.367
    42  16 S        1.949    -0.238   151.254    20.700
    43   7 N        2.698    -0.191    25.135     7.446
    44   6 C        3.838    -0.021    20.925     6.508
    45   6 C        3.730    -0.042    21.429     6.608
    46   6 C        2.768     0.284    22.198     7.716
    47   6 C        3.757    -0.109    22.632     6.783
    48   6 C        3.802    -0.071    21.856     6.656
    49   8 O        0.871    -0.433    22.347     6.338
    50   6 C        3.733    -0.097    22.450     6.763
    51   6 C        3.798    -0.072    21.889     6.662
    52   6 C        3.791    -0.068    21.813     6.651
    53   6 C        3.748     0.018    20.328     6.431
    54   7 N        2.704    -0.229    26.007     7.574
    55   6 C        2.754     0.219    23.375     7.917
    56   7 N        1.781    -0.457    33.000     8.508
    57   7 N        2.656    -0.281    27.266     7.755
    58   6 C        3.755    -0.135    23.159     6.862
    59   1 H        0.860     0.231     0.960     1.535
    60   1 H        0.923     0.056     2.251     2.346
    61   1 H        0.861     0.206     1.076     1.625
    62   1 H        0.923     0.101     1.775     2.083
    63   1 H        0.924     0.052     2.300     2.372
    64   1 H        0.859     0.181     1.209     1.722
    65   1 H        0.926     0.042     2.416     2.431
    66   1 H        0.925     0.026     2.637     2.539
    67   1 H        0.925     0.026     2.643     2.542
    68   1 H        0.915    -0.007     3.177     2.788
    69   1 H        0.929     0.057     2.230     2.335
    70   1 H        0.861     0.352     0.577     1.190
    71   1 H        0.919     0.053     2.287     2.365
    72   1 H        0.915     0.045     2.379     2.413
    73   1 H        0.927     0.057     2.229     2.335
    74   1 H        0.859     0.190     1.156     1.684
    75   1 H        0.925     0.025     2.662     2.551
    76   1 H        0.923     0.038     2.473     2.459
    77   1 H        0.928     0.040     2.446     2.446
    78   1 H        0.924     0.031     2.578     2.511
    79   1 H        0.927     0.057     2.232     2.336
    80   1 H        0.924     0.056     2.244     2.343
    81   1 H        0.922     0.022     2.702     2.571
    82   1 H        0.861     0.195     1.132     1.667
    83   1 H        0.927     0.079     1.991     2.207
    84   1 H        0.927     0.068     2.103     2.268
    85   1 H        0.922     0.033     2.539     2.492
    86   1 H        0.920     0.002     3.016     2.716
    87   1 H        0.905     0.041     2.439     2.443
    88   1 H        0.928     0.055     2.263     2.352
    89   1 H        0.861     0.189     1.165     1.691
    90   1 H        0.857     0.115     1.667     2.023
    91   1 H        0.921     0.056     2.245     2.344
    92   1 H        0.858     0.180     1.214     1.726
    93   1 H        0.925     0.050     2.322     2.383
    94   1 H        0.921     0.064     2.149     2.292
    95   1 H        0.914     0.048     2.341     2.393
    96   1 H        0.929     0.055     2.258     2.350
    97   1 H        0.922     0.022     2.697     2.568
    98   1 H        0.928     0.044     2.397     2.421
    99   1 H        0.925     0.053     2.277     2.360
   100   1 H        0.929     0.053     2.283     2.362
   101   1 H        0.919     0.044     2.403     2.424
   102   1 H        0.926     0.028     2.614     2.528
   103   1 H        0.923     0.039     2.458     2.452
   104   1 H        0.911     0.014     2.828     2.631
   105   1 H        0.929     0.078     1.995     2.209
   106   1 H        0.924     0.032     2.552     2.498
   107   1 H        0.922     0.033     2.542     2.493
   108   1 H        0.924     0.051     2.306     2.375
   109   1 H        0.921     0.023     2.692     2.566
   110   1 H        0.921     0.042     2.418     2.432
   111   1 H        0.860     0.175     1.246     1.748
   112   1 H        0.861     0.123     1.602     1.983
   113   1 H        0.850     0.161     1.329     1.806
   114   1 H        0.861     0.174     1.249     1.751
   115   1 H        0.924     0.094     1.841     2.122
   116   1 H        0.924     0.033     2.547     2.496
   117   1 H        0.928     0.054     2.268     2.355

 Mol. C6AA /au·bohr⁶  :     136537.116292
 Mol. C8AA /au·bohr⁸  :    3096014.660437
 Mol. α(0) /au        :        551.861984


Wiberg/Mayer (AO) data.
largest (>0.10) Wiberg bond orders for each atom

 ---------------------------------------------------------------------------
     #   Z sym  total        # sym  WBO       # sym  WBO       # sym  WBO
 ---------------------------------------------------------------------------
     1   7 N    3.413 --     7 C    1.263     2 C    0.973    59 H    0.844
                             9 O    0.198
     2   6 C    3.975 --    51 C    0.985     1 N    0.973    60 H    0.951
                             3 C    0.945
     3   6 C    3.949 --     4 O    1.665     5 N    1.274     2 C    0.945
     4   8 O    1.984 --     3 C    1.665     5 N    0.191
     5   7 N    3.432 --     3 C    1.274     6 C    0.955    61 H    0.925
                             4 O    0.191
     6   6 C    3.964 --    58 C    1.000    46 C    0.958     5 N    0.955
                            62 H    0.932
     7   6 C    3.946 --     9 O    1.672     1 N    1.263     8 C    0.933
     8   6 C    3.950 --    10 N    0.974    11 C    0.963    63 H    0.943
                             7 C    0.933
     9   8 O    1.996 --     7 C    1.672     1 N    0.198
    10   7 N    3.446 --    12 C    1.278     8 C    0.974    64 H    0.917
                            15 O    0.173
    11   6 C    3.981 --    13 C    1.028    66 H    0.970     8 C    0.963
                            65 H    0.943
    12   6 C    3.934 --    15 O    1.568    10 N    1.278    14 C    0.974
    13   6 C    3.966 --    11 C    1.028    67 H    0.966    68 H    0.965
                            16 C    0.879
    14   6 C    3.979 --    12 C    0.974    17 N    0.964    69 H    0.962
                            18 C    0.962
    15   8 O    1.962 --    12 C    1.568    10 N    0.173
    16   6 C    3.945 --    20 O    1.551    19 O    1.490    13 C    0.879
    17   7 N    3.022 --    21 C    1.500    14 C    0.964    24 O    0.227
                            70 H    0.174
    18   6 C    3.982 --    72 H    0.972    14 C    0.962    71 H    0.962
                            22 C    0.930
    19   8 O    1.802 --    16 C    1.490    20 O    0.233
    20   8 O    1.856 --    16 C    1.551    19 O    0.233
    21   6 C    3.963 --    17 N    1.500    24 O    1.479    23 C    0.916
    22   6 C    3.926 --    25 O    1.703    26 O    1.263    18 C    0.930
    23   6 C    3.948 --    27 N    0.972    73 H    0.967    28 C    0.956
                            21 C    0.916
    24   8 O    1.854 --    21 C    1.479    17 N    0.227
    25   8 O    1.998 --    22 C    1.703    26 O    0.179
    26   8 O    2.239 --    22 C    1.263    70 H    0.676    25 O    0.179
    27   7 N    3.461 --    29 C    1.282    23 C    0.972    74 H    0.912
                            32 O    0.213
    28   6 C    3.996 --    30 C    1.024    75 H    0.974    76 H    0.971
                            23 C    0.956
    29   6 C    3.954 --    32 O    1.676    27 N    1.282    31 C    0.920
    30   6 C    3.986 --    28 C    1.024    33 C    0.992    78 H    0.967
                            77 H    0.957
    31   6 C    3.958 --    35 C    1.009    79 H    0.950    34 N    0.939
                            29 C    0.920
    32   8 O    2.012 --    29 C    1.676    27 N    0.213
    33   6 C    3.990 --    36 C    0.996    30 C    0.992    81 H    0.977
                            80 H    0.953
    34   7 N    3.446 --    37 C    1.294    31 C    0.939    82 H    0.914
                            41 O    0.204
    35   6 C    3.991 --    38 C    1.023    31 C    1.009    84 H    0.964
                            83 H    0.942
    36   6 C    3.978 --    39 N    1.016    33 C    0.996    85 H    0.974
                            86 H    0.972
    37   6 C    3.953 --    41 O    1.664    34 N    1.294    40 C    0.925
    38   6 C    3.975 --    35 C    1.023    88 H    0.971    42 S    0.969
                            87 H    0.965
    39   7 N    2.980 --    36 C    1.016    90 H    0.970    89 H    0.939
    40   6 C    3.961 --    43 N    0.989    91 H    0.955    44 C    0.939
                            37 C    0.925
    41   8 O    1.999 --    37 C    1.664    34 N    0.204
    42  16 S    2.084 --    45 C    1.015    38 C    0.969
    43   7 N    3.434 --    46 C    1.237    40 C    0.989    92 H    0.911
                            49 O    0.187
    44   6 C    3.989 --    47 C    1.013    48 C    1.010    93 H    0.966
                            40 C    0.939
    45   6 C    3.979 --    42 S    1.015    96 H    0.988    95 H    0.976
                            94 H    0.971
    46   6 C    3.955 --    49 O    1.693    43 N    1.237     6 C    0.958
    47   6 C    3.990 --    44 C    1.013    98 H    0.985    97 H    0.979
                            99 H    0.974
    48   6 C    3.990 --    44 C    1.010    50 C    1.004   100 H    0.975
                           101 H    0.973
    49   8 O    2.008 --    46 C    1.693    43 N    0.187
    50   6 C    3.993 --    48 C    1.004   103 H    0.989   104 H    0.987
                           102 H    0.986
    51   6 C    3.987 --    52 C    0.988     2 C    0.985   105 H    0.976
                           106 H    0.973
    52   6 C    3.989 --    53 C    1.007    51 C    0.988   107 H    0.979
                           108 H    0.975
    53   6 C    3.974 --    52 C    1.007    54 N    0.992   110 H    0.967
                           109 H    0.966
    54   7 N    3.277 --    55 C    1.129    53 C    0.992   111 H    0.922
                            56 N    0.134
    55   6 C    3.955 --    56 N    1.633    57 N    1.170    54 N    1.129
    56   7 N    2.903 --    55 C    1.633   112 H    0.960    54 N    0.134
                            57 N    0.128
    57   7 N    3.275 --    55 C    1.170   114 H    0.951   113 H    0.946
                            56 N    0.128
    58   6 C    3.982 --     6 C    1.000   117 H    0.980   116 H    0.975
                           115 H    0.972
    59   1 H    0.946 --     1 N    0.844
    60   1 H    0.997 --     2 C    0.951
    61   1 H    0.958 --     5 N    0.925
    62   1 H    0.989 --     6 C    0.932
    63   1 H    0.997 --     8 C    0.943
    64   1 H    0.967 --    10 N    0.917
    65   1 H    0.998 --    11 C    0.943
    66   1 H    0.998 --    11 C    0.970
    67   1 H    0.999 --    13 C    0.966
    68   1 H    0.999 --    13 C    0.965
    69   1 H    0.996 --    14 C    0.962
    70   1 H    0.876 --    26 O    0.676    17 N    0.174
    71   1 H    0.997 --    18 C    0.962
    72   1 H    0.997 --    18 C    0.972
    73   1 H    0.997 --    23 C    0.967
    74   1 H    0.964 --    27 N    0.912
    75   1 H    0.999 --    28 C    0.974
    76   1 H    0.999 --    28 C    0.971
    77   1 H    0.998 --    30 C    0.957
    78   1 H    0.999 --    30 C    0.967
    79   1 H    0.997 --    31 C    0.950
    80   1 H    0.997 --    33 C    0.953
    81   1 H    0.999 --    33 C    0.977
    82   1 H    0.962 --    34 N    0.914
    83   1 H    0.993 --    35 C    0.942
    84   1 H    0.995 --    35 C    0.964
    85   1 H    0.998 --    36 C    0.974
    86   1 H    0.999 --    36 C    0.972
    87   1 H    0.998 --    38 C    0.965
    88   1 H    0.997 --    38 C    0.971
    89   1 H    0.964 --    39 N    0.939
    90   1 H    0.987 --    39 N    0.970
    91   1 H    0.996 --    40 C    0.955
    92   1 H    0.968 --    43 N    0.911
    93   1 H    0.997 --    44 C    0.966
    94   1 H    0.996 --    45 C    0.971
    95   1 H    0.998 --    45 C    0.976
    96   1 H    0.997 --    45 C    0.988
    97   1 H    0.999 --    47 C    0.979
    98   1 H    0.998 --    47 C    0.985
    99   1 H    0.996 --    47 C    0.974
   100   1 H    0.997 --    48 C    0.975
   101   1 H    0.998 --    48 C    0.973
   102   1 H    0.999 --    50 C    0.986
   103   1 H    0.998 --    50 C    0.989
   104   1 H    1.000 --    50 C    0.987
   105   1 H    0.994 --    51 C    0.976
   106   1 H    0.998 --    51 C    0.973
   107   1 H    0.999 --    52 C    0.979
   108   1 H    0.997 --    52 C    0.975
   109   1 H    0.999 --    53 C    0.966
   110   1 H    0.998 --    53 C    0.967
   111   1 H    0.970 --    54 N    0.922
   112   1 H    0.985 --    56 N    0.960
   113   1 H    0.974 --    57 N    0.946
   114   1 H    0.969 --    57 N    0.951
   115   1 H    0.991 --    58 C    0.972
   116   1 H    0.998 --    58 C    0.975
   117   1 H    0.997 --    58 C    0.980
 ---------------------------------------------------------------------------

Topologies differ in total number of bonds
Writing topology from bond orders to xtbtopo.mol

molecular dipole:
                 x           y           z       tot (Debye)
 q only:       -1.112      12.559       2.684
   full:       -0.449      12.686       2.765      33.021
molecular quadrupole (traceless):
                xx          xy          yy          xz          yz          zz
 q only:        4.901      42.259     -82.173      33.230    -124.077      77.273
  q+dip:       -3.515      49.931     -81.687      28.642    -139.826      85.202
   full:       -5.994      49.264     -80.049      27.487    -140.652      86.043


           -------------------------------------------------
          | TOTAL ENERGY             -185.528657891338 Eh   |
          | GRADIENT NORM               0.393999791110 Eh/α |
          | HOMO-LUMO GAP               0.374980646310 eV   |
           -------------------------------------------------

------------------------------------------------------------------------
 * finished run on 2026/05/23 at 12:58:09.654     
------------------------------------------------------------------------
 total:
 * wall-time:     0 d,  0 h,  0 min, 14.644 sec
 *  cpu-time:     0 d,  0 h,  0 min, 33.869 sec
 * ratio c/w:     2.313 speedup
 SCF:
 * wall-time:     0 d,  0 h,  0 min, 14.103 sec
 *  cpu-time:     0 d,  0 h,  0 min, 32.468 sec
 * ratio c/w:     2.302 speedup

normal termination of xtb
