      -----------------------------------------------------------      
     |                   =====================                   |     
     |                           x T B                           |     
     |                   =====================                   |     
     |                         S. Grimme                         |     
     |          Mulliken Center for Theoretical Chemistry        |     
     |                    University of Bonn                     |     
      -----------------------------------------------------------      

   * xtb version 6.7.1 (26dd68d) compiled by 'froitzheim@fs7' on 2026-05-14

   xtb is free software: you can redistribute it and/or modify it under
   the terms of the GNU Lesser General Public License as published by
   the Free Software Foundation, either version 3 of the License, or
   (at your option) any later version.
   
   xtb is distributed in the hope that it will be useful,
   but WITHOUT ANY WARRANTY; without even the implied warranty of
   MERCHANTABILITY or FITNESS FOR A PARTICULAR PURPOSE.  See the
   GNU Lesser General Public License for more details.
   
   Cite this work as:
   * C. Bannwarth, E. Caldeweyher, S. Ehlert, A. Hansen, P. Pracht,
     J. Seibert, S. Spicher, S. Grimme, WIREs Comput. Mol. Sci., 2020, 11,
     e01493. DOI: 10.1002/wcms.1493
   
   for g-xTB:
   * T. Froitzheim, M. Müller, A. Hansen, S. Grimme, ChemRxiv, 2025, preprint.
     DOI: 10.26434/chemrxiv-2025-bjxv
   for GFN2-xTB:
   * C. Bannwarth, S. Ehlert and S. Grimme., J. Chem. Theory Comput., 2019,
     15, 1652-1671. DOI: 10.1021/acs.jctc.8b01176
   for GFN1-xTB:
   * S. Grimme, C. Bannwarth, P. Shushkov, J. Chem. Theory Comput., 2017,
     13, 1989-2009. DOI: 10.1021/acs.jctc.7b00118
   for GFN0-xTB:
   * P. Pracht, E. Caldeweyher, S. Ehlert, S. Grimme, ChemRxiv, 2019, preprint.
     DOI: 10.26434/chemrxiv.8326202.v1
   for GFN-FF:
   * S. Spicher and S. Grimme, Angew. Chem. Int. Ed., 2020, 59, 15665-15673.
     DOI: 10.1002/anie.202004239
   
   for ALPB and GBSA implicit solvation:
   * S. Ehlert, M. Stahn, S. Spicher, S. Grimme, J. Chem. Theory Comput.,
     2021, 17, 4250-4261. DOI: 10.1021/acs.jctc.1c00471
   
   for ddCOSMO and CPCM-X implicit solvation:
   * M. Stahn, S. Ehlert, S. Grimme, J. Phys. Chem. A,
     2023, XX, XXXX-XXXX. DOI: 10.1021/acs.jpca.3c04382
   
   for DFT-D4:
   * E. Caldeweyher, C. Bannwarth and S. Grimme, J. Chem. Phys., 2017,
     147, 034112. DOI: 10.1063/1.4993215
   * E. Caldeweyher, S. Ehlert, A. Hansen, H. Neugebauer, S. Spicher,
     C. Bannwarth and S. Grimme, J. Chem. Phys., 2019, 150, 154122.
     DOI: 10.1063/1.5090222
   * E. Caldeweyher, J.-M. Mewes, S. Ehlert and S. Grimme, Phys. Chem. Chem. Phys.
     2020, 22, 8499-8512. DOI: 10.1039/D0CP00502A
   
   for sTDA-xTB:
   * S. Grimme and C. Bannwarth, J. Chem. Phys., 2016, 145, 054103.
     DOI: 10.1063/1.4959605
   
   in the mass-spec context:
   * V. Asgeirsson, C. Bauer and S. Grimme, Chem. Sci., 2017, 8, 4879.
     DOI: 10.1039/c7sc00601b
   * J. Koopman and S. Grimme, ACS Omega 2019, 4, 12, 15120-15133.
     DOI: 10.1021/acsomega.9b02011
   
   for metadynamics refer to:
   * S. Grimme, J. Chem. Theory Comput., 2019, 155, 2847-2862
     DOI: 10.1021/acs.jctc.9b00143
   
   for SPH calculations refer to:
   * S. Spicher and S. Grimme, J. Chem. Theory Comput., 2021, 17, 1701-1714
     DOI: 10.1021/acs.jctc.0c01306
   
   for ONIOM refer to:
   * C. Plett, A. Katbashev, S. Ehlert, S. Grimme, M. Bursch,
     Phys. Chem. Chem. Phys., 2023, 25, 17860-17868. DOI: 10.1039/D3CP02178E
   
   for DIPRO refer to:
   * J. Kohn, N. Gildemeister, S. Grimme, D. Fazzi, A. Hansen,
     J. Chem. Phys. 159, 144106 (2023). DOI: 10.1063/5.0167484
   
   for PTB refer to:
   * S. Grimme, M. Mueller, A. Hansen, J. Chem. Phys., 2023, 158, 124111.
     DOI: 10.1063/5.0137838
   
   with help from (in alphabetical order)
   P. Atkinson, C. Bannwarth, F. Bohle, G. Brandenburg, E. Caldeweyher,
   M. Checinski, S. Dohm, S. Ehlert, S. Ehrlich, M. Friede, T. Froitzheim,
   I. Gerasimov, C. Hölzer, A. Katbashev, J. Kohn, J. Koopman, C. Lavigne,
   S. Lehtola, F. März, M. Müller, F. Musil, H. Neugebauer, J. Pisarek,
   C. Plett, P. Pracht, F. Pultar, J. Seibert, P. Shushkov, S. Spicher,
   M. Stahn, M. Steiner, T. Strunk, J. Stückrath, T. Rose, and J. Unsleber
   
 * started run on 2026/05/23 at 12:23:43.802     
   ID    Z sym.   atoms
    1    7 N      1, 5, 10, 17, 23, 25, 28, 34, 41, 46, 50
    2    6 C      2, 3, 6-8, 11-15, 18-21, 24, 26, 27, 29-32, 35-38, 40,
                  42-45, 48, 49, 51-53
    3    8 O      4, 9, 16, 22, 33, 39, 47
    4    1 H      54-110

           -------------------------------------------------
          |                Calculation Setup                |
           -------------------------------------------------

          program call               : /home/xchen/software/xtb-6.7.1-gxtb/bin/xtb /home/xchen/Test/benchmark/md_sampled/07_7_0083_0/snap_0001.xyz --charge 0 --gxtb --norestart
          coordinate file            : /home/xchen/Test/benchmark/md_sampled/07_7_0083_0/snap_0001.xyz
          omp threads                :                    48

core increment energy         -2.2595336125909E+03 Eh
dispersion energy              2.6581079651473E-02 Eh
molecular charge               0.0000000000000E+00 e
number of electrons            2.9399999999735E+02 e
number of unpaired electrons   0.0000000000000E+00 e
wavefunction                   restricted
integral cutoff                2.6907767250513E+01 bohr
energy convergence             1.0000000000000E-06 Eh
density convergence            2.0000000000000E-05 e

------------------------------------------------------------
  cycle        total energy    energy error   density error
------------------------------------------------------------
      1     -2495.713335177  -2.3620630E+02   0.0000000E+00
      2     -2496.113656666  -4.0032149E-01   1.8548447E-02
      3     -2496.363924418  -2.5026775E-01   1.4781583E-02
      4     -2496.880949992  -5.1702557E-01   1.1813392E-02
      5     -2496.892631453  -1.1681461E-02   9.1337485E-04
      6     -2496.893397233  -7.6577979E-04   1.7962889E-04
      7     -2496.893490259  -9.3026559E-05   6.3319942E-05
      8     -2496.893497059  -6.7997017E-06   1.7928020E-05
      9     -2496.893497898  -8.3878692E-07   4.4597469E-06
------------------------------------------------------------

electronic energy             -2.3738646638647E+02 Eh
total energy                  -2.4968934978977E+03 Eh

Post processing:
 | Mayer-Wiberg bond orders
 | Molecular Multipole Moments

 total:                                  34.411 sec
 - increment                              0.000 sec (  0%)
 - repulsion                              0.014 sec (  0%)
 - dispersion                             0.516 sec (  1%)
 - coulomb                                0.200 sec (  0%)
 - exchange                               0.010 sec (  0%)
 - hamiltonian                           19.925 sec ( 57%)
 - acp                                    0.333 sec (  0%)
 - spin polarization                      0.000 sec (  0%)
 - post processing                        0.169 sec (  0%)
 - scc                                   11.501 sec ( 33%)
 - coulomb gradient                       0.112 sec (  0%)
 - dispersion gradient                    0.294 sec (  0%)
 - exchange gradient                      0.431 sec (  1%)
 - repulsion gradient                     0.032 sec (  0%)
 - acp gradient                           0.416 sec (  1%)
 - hamiltonian gradient                   0.619 sec (  1%)
 - gradient                               1.904 sec (  5%)

         :::::::::::::::::::::::::::::::::::::::::::::::::::::
         ::                     SUMMARY                     ::
         :::::::::::::::::::::::::::::::::::::::::::::::::::::
         :: total energy           -2496.893497897719 Eh    ::
         :: gradient norm              0.336873174331 Eh/a0 ::
         :: HOMO-LUMO gap              8.931839348580 eV    ::
         ::.................................................::
         :: add. restraining           0.000000000000 Eh    ::
         :: total charge              -0.000000000000 e     ::
         :::::::::::::::::::::::::::::::::::::::::::::::::::::

           -------------------------------------------------
          |                Property Printout                |
           -------------------------------------------------

    * Orbital Energies and Occupations
------------------------------------------------------------------
      #    Occupation            Energy/Eh            Energy/eV
------------------------------------------------------------------
      1        2.0000           -1.3156251             -35.8000
    ...           ...                  ...                  ...
    135        2.0000           -0.3644886              -9.9182
    136        2.0000           -0.3613682              -9.8333
    137        2.0000           -0.3579144              -9.7393
    138        2.0000           -0.3515888              -9.5672
    139        2.0000           -0.3514025              -9.5621
    140        2.0000           -0.3482279              -9.4758
    141        2.0000           -0.3452891              -9.3958
    142        2.0000           -0.3446097              -9.3773
    143        2.0000           -0.3392220              -9.2307
    144        2.0000           -0.3335092              -9.0752
    145        2.0000           -0.3268055              -8.8928
    146        2.0000           -0.3265040              -8.8846
    147        2.0000           -0.3211243              -8.7382 (HOMO)
    148                          0.0071148               0.1936 (LUMO)
    149                          0.0183907               0.5004
    150                          0.0319125               0.8684
    151                          0.0445488               1.2122
    152                          0.0473157               1.2875
    153                          0.0544662               1.4821
    154                          0.0687625               1.8711
    155                          0.0718635               1.9555
    156                          0.1043477               2.8394
    157                          0.1439850               3.9180
    158                          0.1478354               4.0228
    ...                                ...                  ...
    269                          0.8003319              21.7781
------------------------------------------------------------------
               HL-Gap            0.3282390 Eh            8.9318 eV
------------------------------------------------------------------

Atomic charges and shell populations (in atomic units):
------------------------------------------------------
     #    Z                q          p(s)       p(p)
------------------------------------------------------
     1    7 N      -0.371186      1.345723   4.025463
     2    6 C      -0.085576      1.114817   2.970759
     3    6 C       0.425266      1.116509   2.458225
     4    8 O      -0.452703      1.852513   4.600190
     5    7 N      -0.384425      1.364656   4.019769
     6    6 C       0.006703      1.127385   2.865912
     7    6 C       0.425204      1.129100   2.445695
     8    6 C       0.005286      1.130184   2.864531
     9    8 O      -0.490369      1.859622   4.630747
    10    7 N      -0.307007      1.339846   3.967160
    11    6 C      -0.178381      1.145981   3.032400
    12    6 C      -0.065864      1.119455   2.946408
    13    6 C       0.431103      1.122854   2.446043
    14    6 C      -0.187914      1.147442   3.040472
    15    6 C       0.020194      1.117700   2.862107
    16    8 O      -0.465037      1.861041   4.603996
    17    7 N      -0.327813      1.351485   3.976328
    18    6 C      -0.162991      1.136122   3.026870
    19    6 C       0.457411      1.100120   2.442469
    20    6 C       0.018748      1.118045   2.863207
    21    6 C       0.017739      1.128645   2.853616
    22    8 O      -0.535802      1.856786   4.679016
    23    7 N      -0.314291      1.578202   3.736089
    24    6 C      -0.111349      1.141530   2.969819
    25    7 N      -0.234674      1.343382   3.891292
    26    6 C      -0.175918      1.143839   3.032079
    27    6 C       0.063898      1.121567   2.814535
    28    7 N      -0.239152      1.352150   3.887002
    29    6 C      -0.071080      1.137838   2.933241
    30    6 C       0.437230      1.098590   2.464180
    31    6 C      -0.207626      1.160201   3.047425
    32    6 C       0.023007      1.140288   2.836705
    33    8 O      -0.530405      1.856544   4.673861
    34    7 N      -0.332015      1.353778   3.978237
    35    6 C      -0.184856      1.154395   3.030461
    36    6 C       0.408144      1.098983   2.492873
    37    6 C      -0.198613      1.148114   3.050498
    38    6 C       0.002019      1.124299   2.873682
    39    8 O      -0.525589      1.849565   4.676024
    40    6 C      -0.198612      1.162229   3.036382
    41    7 N      -0.371215      1.362025   4.009191
    42    6 C      -0.184233      1.148659   3.035574
    43    6 C      -0.100150      1.145659   2.954491
    44    6 C       0.450872      1.116221   2.432907
    45    6 C      -0.188190      1.157179   3.031012
    46    7 N      -0.512877      1.489819   4.023059
    47    8 O      -0.483934      1.851081   4.632853
    48    6 C      -0.199620      1.168407   3.031213
    49    6 C      -0.121696      1.162507   2.959189
    50    7 N      -0.522678      1.499948   4.022730
    51    6 C      -0.126854      1.130935   2.995920
    52    6 C      -0.271514      1.162298   3.109216
    53    6 C      -0.267244      1.171462   3.095782
    54    1 H       0.252425      0.747575
    55    1 H       0.152887      0.847113
    56    1 H       0.099835      0.900165
    57    1 H       0.239928      0.760072
    58    1 H       0.112241      0.887759
    59    1 H       0.127704      0.872296
    60    1 H       0.124742      0.875258
    61    1 H       0.106031      0.893969
    62    1 H       0.112997      0.887003
    63    1 H       0.072000      0.928000
    64    1 H       0.108413      0.891587
    65    1 H       0.118242      0.881758
    66    1 H       0.103954      0.896046
    67    1 H       0.281235      0.718765
    68    1 H       0.128612      0.871388
    69    1 H       0.136664      0.863336
    70    1 H       0.128651      0.871349
    71    1 H       0.126916      0.873084
    72    1 H       0.122516      0.877484
    73    1 H       0.113806      0.886194
    74    1 H       0.129674      0.870326
    75    1 H       0.269006      0.730994
    76    1 H       0.093006      0.906994
    77    1 H       0.110366      0.889634
    78    1 H       0.109552      0.890448
    79    1 H       0.097808      0.902192
    80    1 H       0.115937      0.884063
    81    1 H       0.255189      0.744811
    82    1 H       0.091423      0.908577
    83    1 H       0.115845      0.884155
    84    1 H       0.091684      0.908316
    85    1 H       0.098140      0.901860
    86    1 H       0.141706      0.858294
    87    1 H       0.092187      0.907813
    88    1 H       0.111071      0.888929
    89    1 H       0.245108      0.754892
    90    1 H       0.103223      0.896777
    91    1 H       0.084702      0.915298
    92    1 H       0.119262      0.880738
    93    1 H       0.110300      0.889700
    94    1 H       0.090702      0.909298
    95    1 H       0.101354      0.898646
    96    1 H       0.210980      0.789020
    97    1 H       0.202507      0.797493
    98    1 H       0.112066      0.887934
    99    1 H       0.089973      0.910027
   100    1 H       0.096602      0.903398
   101    1 H       0.107107      0.892893
   102    1 H       0.221367      0.778633
   103    1 H       0.217107      0.782893
   104    1 H       0.090320      0.909680
   105    1 H       0.101869      0.898131
   106    1 H       0.116193      0.883807
   107    1 H       0.094374      0.905626
   108    1 H       0.110642      0.889358
   109    1 H       0.081311      0.918689
   110    1 H       0.097171      0.902829
------------------------------------------------------


Wiberg/Mayer (AO) data.
largest (>0.10) Wiberg bond orders for each atom

 ---------------------------------------------------------------------------
     #   Z sym  total        # sym  WBO       # sym  WBO       # sym  WBO
 ---------------------------------------------------------------------------
     1   7 N    3.253 --     7 C    1.080     2 C    1.010    54 O    0.906
                             9 C    0.156
     2   6 C    3.932 --     1 N    1.010    56 O    0.948     3 C    0.940
                            55 O    0.939
     3   6 C    3.859 --     4 C    1.776     5 N    1.076     2 C    0.940
     4   8 C    2.052 --     3 C    1.776     5 N    0.165
     5   7 N    3.238 --     3 C    1.076     6 C    0.977    57 O    0.917
                             4 C    0.165
     6   6 C    3.943 --    51 C    0.982     5 N    0.977    58 O    0.944
                            44 C    0.892
     7   6 C    3.852 --     9 C    1.739     1 N    1.080     8 C    0.950
     8   6 C    3.935 --    11 C    0.982     7 C    0.950    10 N    0.945
                            59 O    0.938
     9   8 C    2.000 --     7 C    1.739     1 N    0.156
    10   7 N    3.292 --    13 C    1.070    12 C    1.000     8 C    0.945
                            16 C    0.136
    11   6 C    3.957 --    14 C    1.002     8 C    0.982    61 O    0.960
                            60 O    0.954
    12   6 C    3.934 --    10 N    1.000    14 C    0.991    62 O    0.951
                            63 O    0.947
    13   6 C    3.843 --    16 C    1.767    10 N    1.070    15 C    0.926
    14   6 C    3.961 --    11 C    1.002    12 C    0.991    64 O    0.966
                            65 O    0.959
    15   6 C    3.946 --    17 N    0.979    18 C    0.975    66 O    0.937
                            13 C    0.926
    16   8 C    2.020 --    13 C    1.767    10 N    0.136
    17   7 N    3.314 --    19 C    1.178    15 C    0.979    67 O    0.887
                            22 C    0.163
    18   6 C    3.954 --    20 C    1.008    15 C    0.975    69 O    0.947
                            68 O    0.942
    19   6 C    3.857 --    22 C    1.683    17 N    1.178    21 C    0.930
    20   6 C    3.956 --    24 C    1.549    23 N    1.259    18 C    1.008
    21   6 C    3.928 --    26 C    0.992    70 O    0.939    25 N    0.936
                            19 C    0.930
    22   8 C    1.958 --    19 C    1.683    17 N    0.163
    23   7 N    3.004 --    27 C    1.555    20 C    1.259
    24   6 C    3.891 --    20 C    1.549    28 N    1.190    71 O    0.950
                            27 C    0.119
    25   7 N    3.388 --    30 C    1.200    29 C    0.968    21 C    0.936
                            33 C    0.163
    26   6 C    3.959 --    31 C    1.005    21 C    0.992    73 O    0.961
                            72 O    0.956
    27   6 C    3.913 --    23 N    1.555    28 N    1.240    74 O    0.945
                            24 C    0.119
    28   7 N    3.511 --    27 C    1.240    24 C    1.190    75 O    0.898
    29   6 C    3.924 --    31 C    0.990    25 N    0.968    76 O    0.958
                            77 O    0.955
    30   6 C    3.869 --    33 C    1.668    25 N    1.200    32 C    0.916
    31   6 C    3.962 --    26 C    1.005    29 C    0.990    79 O    0.968
                            78 O    0.965
    32   6 C    3.920 --    35 C    0.984    80 O    0.944    34 N    0.942
                            30 C    0.916
    33   8 C    1.956 --    30 C    1.668    25 N    0.163
    34   7 N    3.326 --    36 C    1.234    32 C    0.942    81 O    0.900
                            39 C    0.166
    35   6 C    3.962 --    37 C    1.012    32 C    0.984    82 O    0.961
                            83 O    0.953
    36   6 C    3.876 --    39 C    1.677    34 N    1.234    38 C    0.897
    37   6 C    3.968 --    35 C    1.012    40 C    0.999    84 O    0.959
                            85 O    0.959
    38   6 C    3.934 --    42 C    0.997    41 N    0.975    86 O    0.938
                            36 C    0.897
    39   8 C    1.956 --    36 C    1.677    34 N    0.166
    40   6 C    3.960 --    37 C    0.999    43 C    0.994    87 O    0.963
                            88 O    0.954
    41   7 N    3.260 --    44 C    1.115    38 C    0.975    89 O    0.906
                            47 C    0.152
    42   6 C    3.969 --    45 C    1.011    38 C    0.997    91 O    0.956
                            90 O    0.955
    43   6 C    3.941 --    46 N    1.010    40 C    0.994    93 O    0.957
                            92 O    0.954
    44   6 C    3.845 --    47 C    1.761    41 N    1.115     6 C    0.892
    45   6 C    3.965 --    42 C    1.011    48 C    0.992    95 O    0.965
                            94 O    0.959
    46   7 N    2.938 --    43 C    1.010    97 O    0.941    96 O    0.940
    47   8 C    2.027 --    44 C    1.761    41 N    0.152
    48   6 C    3.961 --    49 C    0.999    45 C    0.992    99 O    0.964
                            98 O    0.963
    49   6 C    3.945 --    50 N    1.006    48 C    0.999   100 O    0.966
                           101 O    0.953
    50   7 N    2.925 --    49 C    1.006   103 O    0.939   102 O    0.937
    51   6 C    3.977 --    52 C    1.004    53 C    1.001     6 C    0.982
                           104 O    0.946
    52   6 C    3.949 --    51 C    1.004   107 O    0.974   105 O    0.966
                           106 O    0.964
    53   6 C    3.958 --    51 C    1.001   109 O    0.975   108 O    0.971
                           110 O    0.971
    54   1 O    0.936 --     1 N    0.906
    55   1 O    0.977 --     2 C    0.939
    56   1 O    0.990 --     2 C    0.948
    57   1 O    0.942 --     5 N    0.917
    58   1 O    0.987 --     6 C    0.944
    59   1 O    0.984 --     8 C    0.938
    60   1 O    0.984 --    11 C    0.954
    61   1 O    0.989 --    11 C    0.960
    62   1 O    0.987 --    12 C    0.951
    63   1 O    0.995 --    12 C    0.947
    64   1 O    0.988 --    14 C    0.966
    65   1 O    0.986 --    14 C    0.959
    66   1 O    0.989 --    15 C    0.937
    67   1 O    0.921 --    17 N    0.887
    68   1 O    0.983 --    18 C    0.942
    69   1 O    0.981 --    18 C    0.947
    70   1 O    0.983 --    21 C    0.939
    71   1 O    0.984 --    24 C    0.950
    72   1 O    0.985 --    26 C    0.956
    73   1 O    0.987 --    26 C    0.961
    74   1 O    0.983 --    27 C    0.945
    75   1 O    0.928 --    28 N    0.898
    76   1 O    0.991 --    29 C    0.958
    77   1 O    0.988 --    29 C    0.955
    78   1 O    0.988 --    31 C    0.965
    79   1 O    0.990 --    31 C    0.968
    80   1 O    0.987 --    32 C    0.944
    81   1 O    0.935 --    34 N    0.900
    82   1 O    0.992 --    35 C    0.961
    83   1 O    0.987 --    35 C    0.953
    84   1 O    0.992 --    37 C    0.959
    85   1 O    0.990 --    37 C    0.959
    86   1 O    0.980 --    38 C    0.938
    87   1 O    0.992 --    40 C    0.963
    88   1 O    0.988 --    40 C    0.954
    89   1 O    0.940 --    41 N    0.906
    90   1 O    0.989 --    42 C    0.955
    91   1 O    0.993 --    42 C    0.956
    92   1 O    0.986 --    43 C    0.954
    93   1 O    0.988 --    43 C    0.957
    94   1 O    0.992 --    45 C    0.959
    95   1 O    0.990 --    45 C    0.965
    96   1 O    0.955 --    46 N    0.940
    97   1 O    0.959 --    46 N    0.941
    98   1 O    0.987 --    48 C    0.963
    99   1 O    0.992 --    48 C    0.964
   100   1 O    0.991 --    49 C    0.966
   101   1 O    0.989 --    49 C    0.953
   102   1 O    0.951 --    50 N    0.937
   103   1 O    0.953 --    50 N    0.939
   104   1 O    0.992 --    51 C    0.946
   105   1 O    0.990 --    52 C    0.966
   106   1 O    0.986 --    52 C    0.964
   107   1 O    0.991 --    52 C    0.974
   108   1 O    0.988 --    53 C    0.971
   109   1 O    0.993 --    53 C    0.975
   110   1 O    0.991 --    53 C    0.971
 ---------------------------------------------------------------------------

Topologies differ in total number of bonds
Writing topology from bond orders to xtbtopo.mol

Atomic dipole moments (in atomic units):
---------------------------------------------------------
     #    Z                 x            y            z
---------------------------------------------------------
           total     1.919611    -1.075828     0.674030
---------------------------------------------------------
         |total|     2.301440     5.849678 Debye


           -------------------------------------------------
          | TOTAL ENERGY            -2496.893497897719 Eh   |
          | GRADIENT NORM               0.336873174331 Eh/α |
           -------------------------------------------------

------------------------------------------------------------------------
 * finished run on 2026/05/23 at 12:24:19.540     
------------------------------------------------------------------------
 total:
 * wall-time:     0 d,  0 h,  0 min, 35.737 sec
 *  cpu-time:     0 d,  0 h,  0 min, 46.477 sec
 * ratio c/w:     1.301 speedup
 SCF:
 * wall-time:     0 d,  0 h,  0 min, 34.963 sec
 *  cpu-time:     0 d,  0 h,  0 min, 45.753 sec
 * ratio c/w:     1.309 speedup

normal termination of xtb
