      -----------------------------------------------------------      
     |                   =====================                   |     
     |                           x T B                           |     
     |                   =====================                   |     
     |                         S. Grimme                         |     
     |          Mulliken Center for Theoretical Chemistry        |     
     |                    University of Bonn                     |     
      -----------------------------------------------------------      

   * xtb version 6.7.1 (26dd68d) compiled by 'froitzheim@fs7' on 2026-05-14

   xtb is free software: you can redistribute it and/or modify it under
   the terms of the GNU Lesser General Public License as published by
   the Free Software Foundation, either version 3 of the License, or
   (at your option) any later version.
   
   xtb is distributed in the hope that it will be useful,
   but WITHOUT ANY WARRANTY; without even the implied warranty of
   MERCHANTABILITY or FITNESS FOR A PARTICULAR PURPOSE.  See the
   GNU Lesser General Public License for more details.
   
   Cite this work as:
   * C. Bannwarth, E. Caldeweyher, S. Ehlert, A. Hansen, P. Pracht,
     J. Seibert, S. Spicher, S. Grimme, WIREs Comput. Mol. Sci., 2020, 11,
     e01493. DOI: 10.1002/wcms.1493
   
   for g-xTB:
   * T. Froitzheim, M. Müller, A. Hansen, S. Grimme, ChemRxiv, 2025, preprint.
     DOI: 10.26434/chemrxiv-2025-bjxv
   for GFN2-xTB:
   * C. Bannwarth, S. Ehlert and S. Grimme., J. Chem. Theory Comput., 2019,
     15, 1652-1671. DOI: 10.1021/acs.jctc.8b01176
   for GFN1-xTB:
   * S. Grimme, C. Bannwarth, P. Shushkov, J. Chem. Theory Comput., 2017,
     13, 1989-2009. DOI: 10.1021/acs.jctc.7b00118
   for GFN0-xTB:
   * P. Pracht, E. Caldeweyher, S. Ehlert, S. Grimme, ChemRxiv, 2019, preprint.
     DOI: 10.26434/chemrxiv.8326202.v1
   for GFN-FF:
   * S. Spicher and S. Grimme, Angew. Chem. Int. Ed., 2020, 59, 15665-15673.
     DOI: 10.1002/anie.202004239
   
   for ALPB and GBSA implicit solvation:
   * S. Ehlert, M. Stahn, S. Spicher, S. Grimme, J. Chem. Theory Comput.,
     2021, 17, 4250-4261. DOI: 10.1021/acs.jctc.1c00471
   
   for ddCOSMO and CPCM-X implicit solvation:
   * M. Stahn, S. Ehlert, S. Grimme, J. Phys. Chem. A,
     2023, XX, XXXX-XXXX. DOI: 10.1021/acs.jpca.3c04382
   
   for DFT-D4:
   * E. Caldeweyher, C. Bannwarth and S. Grimme, J. Chem. Phys., 2017,
     147, 034112. DOI: 10.1063/1.4993215
   * E. Caldeweyher, S. Ehlert, A. Hansen, H. Neugebauer, S. Spicher,
     C. Bannwarth and S. Grimme, J. Chem. Phys., 2019, 150, 154122.
     DOI: 10.1063/1.5090222
   * E. Caldeweyher, J.-M. Mewes, S. Ehlert and S. Grimme, Phys. Chem. Chem. Phys.
     2020, 22, 8499-8512. DOI: 10.1039/D0CP00502A
   
   for sTDA-xTB:
   * S. Grimme and C. Bannwarth, J. Chem. Phys., 2016, 145, 054103.
     DOI: 10.1063/1.4959605
   
   in the mass-spec context:
   * V. Asgeirsson, C. Bauer and S. Grimme, Chem. Sci., 2017, 8, 4879.
     DOI: 10.1039/c7sc00601b
   * J. Koopman and S. Grimme, ACS Omega 2019, 4, 12, 15120-15133.
     DOI: 10.1021/acsomega.9b02011
   
   for metadynamics refer to:
   * S. Grimme, J. Chem. Theory Comput., 2019, 155, 2847-2862
     DOI: 10.1021/acs.jctc.9b00143
   
   for SPH calculations refer to:
   * S. Spicher and S. Grimme, J. Chem. Theory Comput., 2021, 17, 1701-1714
     DOI: 10.1021/acs.jctc.0c01306
   
   for ONIOM refer to:
   * C. Plett, A. Katbashev, S. Ehlert, S. Grimme, M. Bursch,
     Phys. Chem. Chem. Phys., 2023, 25, 17860-17868. DOI: 10.1039/D3CP02178E
   
   for DIPRO refer to:
   * J. Kohn, N. Gildemeister, S. Grimme, D. Fazzi, A. Hansen,
     J. Chem. Phys. 159, 144106 (2023). DOI: 10.1063/5.0167484
   
   for PTB refer to:
   * S. Grimme, M. Mueller, A. Hansen, J. Chem. Phys., 2023, 158, 124111.
     DOI: 10.1063/5.0137838
   
   with help from (in alphabetical order)
   P. Atkinson, C. Bannwarth, F. Bohle, G. Brandenburg, E. Caldeweyher,
   M. Checinski, S. Dohm, S. Ehlert, S. Ehrlich, M. Friede, T. Froitzheim,
   I. Gerasimov, C. Hölzer, A. Katbashev, J. Kohn, J. Koopman, C. Lavigne,
   S. Lehtola, F. März, M. Müller, F. Musil, H. Neugebauer, J. Pisarek,
   C. Plett, P. Pracht, F. Pultar, J. Seibert, P. Shushkov, S. Spicher,
   M. Stahn, M. Steiner, T. Strunk, J. Stückrath, T. Rose, and J. Unsleber
   
 * started run on 2026/05/23 at 12:31:35.859     
   ID    Z sym.   atoms
    1    7 N      1, 5, 10, 17, 22, 26, 27, 33, 41
    2    6 C      2, 3, 6-8, 11-14, 16, 18-21, 23, 28-30, 34-39
    3    8 O      4, 9, 15, 24, 25, 31, 32, 40
    4    1 H      42-82

           -------------------------------------------------
          |                Calculation Setup                |
           -------------------------------------------------

          program call               : /home/xchen/software/xtb-6.7.1-gxtb/bin/xtb /home/xchen/Test/benchmark/md_sampled/09_5_0584_0/snap_0064.xyz --charge 0 --gxtb --norestart
          coordinate file            : /home/xchen/Test/benchmark/md_sampled/09_5_0584_0/snap_0064.xyz
          omp threads                :                    48

core increment energy         -1.8448408193529E+03 Eh
dispersion energy              1.6641418628034E-02 Eh
molecular charge               0.0000000000000E+00 e
number of electrons            2.2999999999795E+02 e
number of unpaired electrons   0.0000000000000E+00 e
wavefunction                   restricted
integral cutoff                2.6907767250513E+01 bohr
energy convergence             1.0000000000000E-06 Eh
density convergence            2.0000000000000E-05 e

------------------------------------------------------------
  cycle        total energy    energy error   density error
------------------------------------------------------------
      1     -2032.875190500  -1.8805101E+02   0.0000000E+00
      2     -2033.209181209  -3.3399071E-01   2.2433753E-02
      3     -2033.429818749  -2.2063754E-01   1.7950584E-02
      4     -2033.915148715  -4.8532997E-01   1.4371745E-02
      5     -2033.922477855  -7.3291400E-03   1.1247696E-03
      6     -2033.923042806  -5.6495094E-04   2.4759421E-04
      7     -2033.923092027  -4.9221579E-05   8.5862121E-05
      8     -2033.923095800  -3.7725707E-06   2.0989458E-05
      9     -2033.923096206  -4.0586104E-07   3.5064726E-06
------------------------------------------------------------

electronic energy             -1.8909891827166E+02 Eh
total energy                  -2.0339230962059E+03 Eh

Post processing:
 | Mayer-Wiberg bond orders
 | Molecular Multipole Moments

 total:                                  12.335 sec
 - increment                              0.000 sec (  0%)
 - repulsion                              0.020 sec (  0%)
 - dispersion                             0.413 sec (  3%)
 - coulomb                                0.224 sec (  1%)
 - exchange                               0.011 sec (  0%)
 - hamiltonian                            0.559 sec (  4%)
 - acp                                    0.274 sec (  2%)
 - spin polarization                      0.000 sec (  0%)
 - post processing                        0.136 sec (  1%)
 - scc                                    9.545 sec ( 77%)
 - coulomb gradient                       0.115 sec (  0%)
 - dispersion gradient                    0.118 sec (  0%)
 - exchange gradient                      0.128 sec (  1%)
 - repulsion gradient                     0.006 sec (  0%)
 - acp gradient                           0.421 sec (  3%)
 - hamiltonian gradient                   0.496 sec (  4%)
 - gradient                               1.283 sec ( 10%)

         :::::::::::::::::::::::::::::::::::::::::::::::::::::
         ::                     SUMMARY                     ::
         :::::::::::::::::::::::::::::::::::::::::::::::::::::
         :: total energy           -2033.923096205930 Eh    ::
         :: gradient norm              0.337812958459 Eh/a0 ::
         :: HOMO-LUMO gap              9.286928017107 eV    ::
         ::.................................................::
         :: add. restraining           0.000000000000 Eh    ::
         :: total charge              -0.000000000000 e     ::
         :::::::::::::::::::::::::::::::::::::::::::::::::::::

           -------------------------------------------------
          |                Property Printout                |
           -------------------------------------------------

    * Orbital Energies and Occupations
------------------------------------------------------------------
      #    Occupation            Energy/Eh            Energy/eV
------------------------------------------------------------------
      1        2.0000           -1.3671372             -37.2017
    ...           ...                  ...                  ...
    103        2.0000           -0.3925401             -10.6816
    104        2.0000           -0.3908759             -10.6363
    105        2.0000           -0.3902813             -10.6201
    106        2.0000           -0.3894348             -10.5971
    107        2.0000           -0.3790288             -10.3139
    108        2.0000           -0.3756123             -10.2209
    109        2.0000           -0.3728517             -10.1458
    110        2.0000           -0.3630020              -9.8778
    111        2.0000           -0.3610985              -9.8260
    112        2.0000           -0.3603073              -9.8045
    113        2.0000           -0.3600339              -9.7970
    114        2.0000           -0.3556969              -9.6790
    115        2.0000           -0.3520882              -9.5808 (HOMO)
    116                         -0.0107999              -0.2939 (LUMO)
    117                          0.0098586               0.2683
    118                          0.0171374               0.4663
    119                          0.0266120               0.7242
    120                          0.0343657               0.9351
    121                          0.0391296               1.0648
    122                          0.0445742               1.2129
    123                          0.0499600               1.3595
    124                          0.1332509               3.6259
    125                          0.1593303               4.3356
    126                          0.1610150               4.3814
    ...                                ...                  ...
    205                          0.7597644              20.6742
------------------------------------------------------------------
               HL-Gap            0.3412883 Eh            9.2869 eV
------------------------------------------------------------------

Atomic charges and shell populations (in atomic units):
------------------------------------------------------
     #    Z                q          p(s)       p(p)
------------------------------------------------------
     1    7 N      -0.331126      1.365941   3.965185
     2    6 C      -0.000755      1.103649   2.897106
     3    6 C       0.429520      1.079401   2.491079
     4    8 O      -0.577634      1.845319   4.732315
     5    7 N      -0.317889      1.363868   3.954021
     6    6 C      -0.010295      1.128449   2.881846
     7    6 C       0.426636      1.094183   2.479181
     8    6 C      -0.027486      1.130179   2.897307
     9    8 O      -0.517325      1.848026   4.669299
    10    7 N      -0.348840      1.377915   3.970925
    11    6 C      -0.159640      1.165727   2.993914
    12    6 C       0.416537      1.099431   2.484033
    13    6 C      -0.184224      1.158966   3.025258
    14    6 C       0.034821      1.113353   2.851826
    15    8 O      -0.510159      1.853656   4.656503
    16    6 C      -0.202762      1.145674   3.057089
    17    7 N      -0.289001      1.335839   3.953161
    18    6 C      -0.217652      1.157569   3.060083
    19    6 C      -0.110813      1.133574   2.977239
    20    6 C       0.415280      1.105984   2.478736
    21    6 C       0.389900      1.105504   2.504596
    22    7 N      -0.513105      1.472267   4.040838
    23    6 C       0.031937      1.106787   2.861277
    24    8 O      -0.579062      1.856234   4.722827
    25    8 O      -0.538720      1.859086   4.679634
    26    7 N      -0.434969      1.395140   4.039829
    27    7 N      -0.350065      1.382330   3.967735
    28    6 C      -0.174175      1.161318   3.012858
    29    6 C       0.415859      1.105494   2.478646
    30    6 C       0.401721      1.094438   2.503842
    31    8 O      -0.507035      1.853069   4.653967
    32    8 O      -0.523948      1.852145   4.671803
    33    7 N      -0.414138      1.380135   4.034003
    34    6 C      -0.114285      1.132726   2.981559
    35    6 C      -0.237135      1.174739   3.062396
    36    6 C      -0.256063      1.157116   3.098947
    37    6 C      -0.180006      1.149485   3.030521
    38    6 C      -0.192514      1.162205   3.030309
    39    6 C       0.402122      1.118941   2.478937
    40    8 O      -0.503653      1.853999   4.649654
    41    7 N      -0.463694      1.382238   4.081456
    42    1 H       0.290037      0.709963
    43    1 H       0.124447      0.875553
    44    1 H       0.272690      0.727310
    45    1 H       0.118517      0.881483
    46    1 H       0.130272      0.869728
    47    1 H       0.271019      0.728981
    48    1 H       0.089213      0.910787
    49    1 H       0.127694      0.872306
    50    1 H       0.104233      0.895767
    51    1 H       0.081591      0.918409
    52    1 H       0.115484      0.884516
    53    1 H       0.099943      0.900057
    54    1 H       0.089783      0.910217
    55    1 H       0.275833      0.724167
    56    1 H       0.128884      0.871116
    57    1 H       0.115913      0.884087
    58    1 H       0.105522      0.894478
    59    1 H       0.106194      0.893806
    60    1 H       0.224155      0.775845
    61    1 H       0.203905      0.796095
    62    1 H       0.149578      0.850422
    63    1 H       0.269945      0.730055
    64    1 H       0.247748      0.752252
    65    1 H       0.302942      0.697058
    66    1 H       0.086940      0.913060
    67    1 H       0.143866      0.856134
    68    1 H       0.240888      0.759112
    69    1 H       0.260422      0.739578
    70    1 H       0.122112      0.877888
    71    1 H       0.087236      0.912764
    72    1 H       0.080912      0.919088
    73    1 H       0.092841      0.907159
    74    1 H       0.109554      0.890446
    75    1 H       0.103141      0.896859
    76    1 H       0.074877      0.925123
    77    1 H       0.104903      0.895097
    78    1 H       0.094532      0.905468
    79    1 H       0.138841      0.861159
    80    1 H       0.129099      0.870901
    81    1 H       0.260872      0.739128
    82    1 H       0.247263      0.752737
------------------------------------------------------


Wiberg/Mayer (AO) data.
largest (>0.10) Wiberg bond orders for each atom

 ---------------------------------------------------------------------------
     #   Z sym  total        # sym  WBO       # sym  WBO       # sym  WBO
 ---------------------------------------------------------------------------
     1   7 N    3.311 --     7 C    1.204     2 C    0.966    42 O    0.868
                             9 C    0.167
     2   6 C    3.943 --     3 C    0.971     1 N    0.966    43 O    0.940
                            34 C    0.936
     3   6 C    3.878 --     4 C    1.569     5 N    1.266     2 C    0.971
     4   8 C    1.902 --     3 C    1.569     5 N    0.157
     5   7 N    3.364 --     3 C    1.266     6 C    0.955    44 O    0.896
                             4 C    0.157
     6   6 C    3.929 --    37 C    0.992     5 N    0.955    45 O    0.947
                            29 C    0.887
     7   6 C    3.874 --     9 C    1.691     1 N    1.204     8 C    0.907
     8   6 C    3.928 --    11 C    0.981    10 N    0.965    46 O    0.934
                             7 C    0.907
     9   8 C    1.982 --     7 C    1.691     1 N    0.167
    10   7 N    3.297 --    12 C    1.201     8 C    0.965    47 O    0.884
                            15 C    0.152
    11   6 C    3.953 --    13 C    1.000     8 C    0.981    48 O    0.958
                            49 O    0.952
    12   6 C    3.875 --    15 C    1.689    10 N    1.201    14 C    0.898
    13   6 C    3.964 --    11 C    1.000    16 C    0.998    51 O    0.962
                            50 O    0.961
    14   6 C    3.942 --    17 N    1.012    18 C    0.945    52 O    0.937
                            12 C    0.898
    15   8 C    1.975 --    12 C    1.689    10 N    0.152
    16   6 C    3.969 --    19 C    1.008    13 C    0.998    54 O    0.957
                            53 O    0.954
    17   7 N    3.375 --    20 C    1.230    14 C    1.012    55 O    0.889
                            24 C    0.150
    18   6 C    3.955 --    21 C    0.983    57 O    0.959    56 O    0.946
                            14 C    0.945
    19   6 C    3.949 --    22 N    1.012    16 C    1.008    59 O    0.955
                            58 O    0.952
    20   6 C    3.865 --    24 C    1.595    17 N    1.230    23 C    0.954
    21   6 C    3.881 --    25 C    1.654    26 N    1.209    18 C    0.983
    22   7 N    2.936 --    19 C    1.012    61 O    0.940    60 O    0.933
    23   6 C    3.940 --    28 C    0.968    27 N    0.960    20 C    0.954
                            62 O    0.928
    24   8 C    1.891 --    20 C    1.595    17 N    0.150
    25   8 C    1.920 --    21 C    1.654    26 N    0.160
    26   7 N    3.227 --    21 C    1.209    64 O    0.915    63 O    0.902
                            25 C    0.160
    27   7 N    3.305 --    29 C    1.219    23 C    0.960    65 O    0.842
                            31 C    0.167
    28   6 C    3.954 --    23 C    0.968    66 O    0.958    67 O    0.942
                            30 C    0.942
    29   6 C    3.873 --    31 C    1.696    27 N    1.219     6 C    0.887
    30   6 C    3.879 --    32 C    1.677    33 N    1.224    28 C    0.942
    31   8 C    1.984 --    29 C    1.696    27 N    0.167
    32   8 C    1.952 --    30 C    1.677    33 N    0.162
    33   7 N    3.249 --    30 C    1.224    68 O    0.918    69 O    0.906
                            32 C    0.162
    34   6 C    3.968 --    36 C    1.016    35 C    1.000    70 O    0.941
                             2 C    0.936
    35   6 C    3.959 --    34 C    1.000    73 O    0.977    72 O    0.974
                            71 O    0.973
    36   6 C    3.958 --    34 C    1.016    76 O    0.973    75 O    0.970
                            74 O    0.967
    37   6 C    3.963 --    38 C    1.005     6 C    0.992    77 O    0.959
                            78 O    0.932
    38   6 C    3.952 --    37 C    1.005    80 O    0.956    79 O    0.944
                            39 C    0.928
    39   6 C    3.860 --    40 C    1.724    41 N    1.180    38 C    0.928
    40   8 C    1.989 --    39 C    1.724    41 N    0.164
    41   7 N    3.203 --    39 C    1.180    81 O    0.908    82 O    0.897
                            40 C    0.164
    42   1 O    0.916 --     1 N    0.868
    43   1 O    0.985 --     2 C    0.940
    44   1 O    0.926 --     5 N    0.896
    45   1 O    0.986 --     6 C    0.947
    46   1 O    0.983 --     8 C    0.934
    47   1 O    0.927 --    10 N    0.884
    48   1 O    0.992 --    11 C    0.958
    49   1 O    0.984 --    11 C    0.952
    50   1 O    0.989 --    13 C    0.961
    51   1 O    0.993 --    13 C    0.962
    52   1 O    0.987 --    14 C    0.937
    53   1 O    0.990 --    16 C    0.954
    54   1 O    0.992 --    16 C    0.957
    55   1 O    0.924 --    17 N    0.889
    56   1 O    0.983 --    18 C    0.946
    57   1 O    0.987 --    18 C    0.959
    58   1 O    0.989 --    19 C    0.952
    59   1 O    0.989 --    19 C    0.955
    60   1 O    0.950 --    22 N    0.933
    61   1 O    0.958 --    22 N    0.940
    62   1 O    0.978 --    23 C    0.928
    63   1 O    0.927 --    26 N    0.902
    64   1 O    0.939 --    26 N    0.915
    65   1 O    0.908 --    27 N    0.842
    66   1 O    0.992 --    28 C    0.958
    67   1 O    0.979 --    28 C    0.942
    68   1 O    0.942 --    33 N    0.918
    69   1 O    0.932 --    33 N    0.906
    70   1 O    0.985 --    34 C    0.941
    71   1 O    0.992 --    35 C    0.973
    72   1 O    0.993 --    35 C    0.974
    73   1 O    0.991 --    35 C    0.977
    74   1 O    0.988 --    36 C    0.967
    75   1 O    0.989 --    36 C    0.970
    76   1 O    0.994 --    36 C    0.973
    77   1 O    0.989 --    37 C    0.959
    78   1 O    0.991 --    37 C    0.932
    79   1 O    0.981 --    38 C    0.944
    80   1 O    0.983 --    38 C    0.956
    81   1 O    0.932 --    41 N    0.908
    82   1 O    0.939 --    41 N    0.897
 ---------------------------------------------------------------------------

Topologies differ in total number of bonds
Writing topology from bond orders to xtbtopo.mol

Atomic dipole moments (in atomic units):
---------------------------------------------------------
     #    Z                 x            y            z
---------------------------------------------------------
           total    -3.159020     0.991367    -2.283117
---------------------------------------------------------
         |total|     4.021795    10.222384 Debye


           -------------------------------------------------
          | TOTAL ENERGY            -2033.923096205930 Eh   |
          | GRADIENT NORM               0.337812958459 Eh/α |
           -------------------------------------------------

------------------------------------------------------------------------
 * finished run on 2026/05/23 at 12:31:49.718     
------------------------------------------------------------------------
 total:
 * wall-time:     0 d,  0 h,  0 min, 13.858 sec
 *  cpu-time:     0 d,  0 h,  0 min, 21.026 sec
 * ratio c/w:     1.517 speedup
 SCF:
 * wall-time:     0 d,  0 h,  0 min, 12.785 sec
 *  cpu-time:     0 d,  0 h,  0 min, 20.425 sec
 * ratio c/w:     1.598 speedup

normal termination of xtb
