      -----------------------------------------------------------      
     |                   =====================                   |     
     |                           x T B                           |     
     |                   =====================                   |     
     |                         S. Grimme                         |     
     |          Mulliken Center for Theoretical Chemistry        |     
     |                    University of Bonn                     |     
      -----------------------------------------------------------      

   * xtb version 6.7.1 (edcfbbe) compiled by 'albert@albert-system' on 2024-07-22

   xtb is free software: you can redistribute it and/or modify it under
   the terms of the GNU Lesser General Public License as published by
   the Free Software Foundation, either version 3 of the License, or
   (at your option) any later version.
   
   xtb is distributed in the hope that it will be useful,
   but WITHOUT ANY WARRANTY; without even the implied warranty of
   MERCHANTABILITY or FITNESS FOR A PARTICULAR PURPOSE.  See the
   GNU Lesser General Public License for more details.
   
   Cite this work as:
   * C. Bannwarth, E. Caldeweyher, S. Ehlert, A. Hansen, P. Pracht,
     J. Seibert, S. Spicher, S. Grimme, WIREs Comput. Mol. Sci., 2020, 11,
     e01493. DOI: 10.1002/wcms.1493
   
   for GFN2-xTB:
   * C. Bannwarth, S. Ehlert and S. Grimme., J. Chem. Theory Comput., 2019,
     15, 1652-1671. DOI: 10.1021/acs.jctc.8b01176
   for GFN1-xTB:
   * S. Grimme, C. Bannwarth, P. Shushkov, J. Chem. Theory Comput., 2017,
     13, 1989-2009. DOI: 10.1021/acs.jctc.7b00118
   for GFN0-xTB:
   * P. Pracht, E. Caldeweyher, S. Ehlert, S. Grimme, ChemRxiv, 2019, preprint.
     DOI: 10.26434/chemrxiv.8326202.v1
   for GFN-FF:
   * S. Spicher and S. Grimme, Angew. Chem. Int. Ed., 2020, 59, 15665-15673.
     DOI: 10.1002/anie.202004239
   
   for ALPB and GBSA implicit solvation:
   * S. Ehlert, M. Stahn, S. Spicher, S. Grimme, J. Chem. Theory Comput.,
     2021, 17, 4250-4261. DOI: 10.1021/acs.jctc.1c00471
   
   for ddCOSMO and CPCM-X implicit solvation:
   * M. Stahn, S. Ehlert, S. Grimme, J. Phys. Chem. A,
     2023, XX, XXXX-XXXX. DOI: 10.1021/acs.jpca.3c04382
   
   for DFT-D4:
   * E. Caldeweyher, C. Bannwarth and S. Grimme, J. Chem. Phys., 2017,
     147, 034112. DOI: 10.1063/1.4993215
   * E. Caldeweyher, S. Ehlert, A. Hansen, H. Neugebauer, S. Spicher,
     C. Bannwarth and S. Grimme, J. Chem. Phys., 2019, 150, 154122.
     DOI: 10.1063/1.5090222
   * E. Caldeweyher, J.-M. Mewes, S. Ehlert and S. Grimme, Phys. Chem. Chem. Phys.
     2020, 22, 8499-8512. DOI: 10.1039/D0CP00502A
   
   for sTDA-xTB:
   * S. Grimme and C. Bannwarth, J. Chem. Phys., 2016, 145, 054103.
     DOI: 10.1063/1.4959605
   
   in the mass-spec context:
   * V. Asgeirsson, C. Bauer and S. Grimme, Chem. Sci., 2017, 8, 4879.
     DOI: 10.1039/c7sc00601b
   * J. Koopman and S. Grimme, ACS Omega 2019, 4, 12, 15120-15133.
     DOI: 10.1021/acsomega.9b02011
   
   for metadynamics refer to:
   * S. Grimme, J. Chem. Theory Comput., 2019, 155, 2847-2862
     DOI: 10.1021/acs.jctc.9b00143
   
   for SPH calculations refer to:
   * S. Spicher and S. Grimme, J. Chem. Theory Comput., 2021, 17, 1701-1714
     DOI: 10.1021/acs.jctc.0c01306
   
   for ONIOM refer to:
   * C. Plett, A. Katbashev, S. Ehlert, S. Grimme, M. Bursch,
     Phys. Chem. Chem. Phys., 2023, 25, 17860-17868. DOI: 10.1039/D3CP02178E
   
   for DIPRO refer to:
   * J. Kohn, N. Gildemeister, S. Grimme, D. Fazzi, A. Hansen,
     J. Chem. Phys., 2023, just accepted.
   
   for PTB refer to:
   * S. Grimme, M. Mueller, A. Hansen, J. Chem. Phys., 2023, 158, 124111.
     DOI: 10.1063/5.0137838
   
   with help from (in alphabetical order)
   P. Atkinson, C. Bannwarth, F. Bohle, G. Brandenburg, E. Caldeweyher
   M. Checinski, S. Dohm, S. Ehlert, S. Ehrlich, I. Gerasimov, C. Hölzer
   A. Katbashev, J. Kohn, J. Koopman, C. Lavigne, S. Lehtola, F. März, M. Müller,
   F. Musil, H. Neugebauer, J. Pisarek, C. Plett, P. Pracht, F. Pultar,
   J. Seibert, P. Shushkov, S. Spicher, M. Stahn, M. Steiner, T. Strunk,
   J. Stückrath, T. Rose, and J. Unsleber
   
 * started run on 2026/05/23 at 08:18:14.547     
   ID    Z sym.   atoms
    1    7 N      1, 5, 10, 17, 23, 28, 35
    2    6 C      2, 3, 6-8, 11-14, 16, 20, 21, 24-26, 29, 31-34, 36-40
    3    8 O      4, 9, 15, 18, 19, 22, 27, 30
    4    1 H      41-70

           -------------------------------------------------
          |                Calculation Setup                |
           -------------------------------------------------

          program call               : /home/xchen/software/xtb-6.7.1/xtb-dist/bin/xtb /home/xchen/Test/benchmark/md_sampled/01_6_0109_n1/snap_0175.xyz --charge -1 --gfn 2 --norestart
          coordinate file            : /home/xchen/Test/benchmark/md_sampled/01_6_0109_n1/snap_0175.xyz
          omp threads                :                    48


           -------------------------------------------------
          |                 G F N 2 - x T B                 |
           -------------------------------------------------

        Reference                      10.1021/acs.jctc.8b01176
      * Hamiltonian:
        H0-scaling (s, p, d)           1.850000    2.230000    2.230000
        zeta-weighting                 0.500000
      * Dispersion:
        s8                             2.700000
        a1                             0.520000
        a2                             5.000000
        s9                             5.000000
      * Repulsion:
        kExp                           1.500000    1.000000
        rExp                           1.000000
      * Coulomb:
        alpha                          2.000000
        third order                    shell-resolved
        anisotropic                    true
        a3                             3.000000
        a5                             4.000000
        cn-shift                       1.200000
        cn-exp                         4.000000
        max-rad                        5.000000


          ...................................................
          :                      SETUP                      :
          :.................................................:
          :  # basis functions                 190          :
          :  # atomic orbitals                 190          :
          :  # shells                          110          :
          :  # electrons                       214          :
          :  max. iterations                   250          :
          :  Hamiltonian                  GFN2-xTB          :
          :  restarted?                      false          :
          :  GBSA solvation                  false          :
          :  PC potential                    false          :
          :  electronic temp.          300.0000000     K    :
          :  accuracy                    1.0000000          :
          :  -> integral cutoff          0.2500000E+02      :
          :  -> integral neglect         0.1000000E-07      :
          :  -> SCF convergence          0.1000000E-05 Eh   :
          :  -> wf. convergence          0.1000000E-03 e    :
          :  Broyden damping             0.4000000          :
          :  net charge                         -1          :
          :  unpaired electrons                  0          :
          ...................................................

 iter      E             dE          RMSdq      gap      omega  full diag
   1   -123.0375273 -0.123038E+03  0.458E+00    3.11       0.0  T
   2   -123.3933545 -0.355827E+00  0.249E+00    2.16       1.0  T
   3   -123.4148450 -0.214904E-01  0.139E+00    1.00       1.0  T
   4   -121.9693060  0.144554E+01  0.319E+00    0.10       1.0  T
   5   -123.4200008 -0.145069E+01  0.316E-01    0.18       1.0  T
   6   -123.1709307  0.249070E+00  0.133E+00    0.01       1.0  T
   7   -123.4221517 -0.251221E+00  0.184E-01    0.15       1.0  T
   8   -123.4248525 -0.270082E-02  0.109E-01    0.37       1.0  T
   9   -123.4250304 -0.177890E-03  0.908E-02    0.41       1.0  T
  10   -123.4250992 -0.687648E-04  0.828E-02    0.44       1.0  T
  11   -123.4251260 -0.268082E-04  0.786E-02    0.44       1.0  T
  12   -123.4251567 -0.307334E-04  0.748E-02    0.44       1.0  T
  13   -123.4251791 -0.223245E-04  0.724E-02    0.43       1.0  T
  14   -123.4252113 -0.322138E-04  0.688E-02    0.41       1.0  T
  15   -123.4252438 -0.325684E-04  0.653E-02    0.39       1.0  T
  16   -123.4252943 -0.504622E-04  0.600E-02    0.36       1.0  T
  17   -123.4253579 -0.635567E-04  0.536E-02    0.33       1.0  T
  18   -123.4254996 -0.141718E-03  0.393E-02    0.28       1.0  T
  19   -123.4256866 -0.187042E-03  0.777E-03    0.23       1.5  T
  20   -123.4256533  0.332988E-04  0.175E-02    0.24       1.0  T
  21   -123.4256869 -0.336173E-04  0.741E-03    0.22       1.6  T
  22   -123.4256930 -0.607461E-05  0.325E-03    0.21       3.7  T
  23   -123.4256936 -0.548977E-06  0.250E-03    0.22       4.8  T
  24   -123.4256944 -0.857970E-06  0.851E-05    0.22     140.5  T
  25   -123.4256944  0.115089E-07  0.297E-04    0.22      40.3  T

   *** convergence criteria satisfied after 25 iterations ***

         #    Occupation            Energy/Eh            Energy/eV
      -------------------------------------------------------------
         1        2.0000           -0.6642206             -18.0744
       ...           ...                  ...                  ...
       101        2.0000           -0.3163065              -8.6071
       102        2.0000           -0.3105986              -8.4518
       103        2.0000           -0.3085082              -8.3949
       104        2.0000           -0.3020238              -8.2185
       105        2.0000           -0.2190987              -5.9620
       106        2.0000           -0.2082513              -5.6668
       107        1.9703           -0.1991365              -5.4188 (HOMO)
       108        0.0297           -0.1911690              -5.2020 (LUMO)
       109        0.0000           -0.1830344              -4.9806
       110                         -0.1719516              -4.6790
       111                         -0.1670963              -4.5469
       112                         -0.1640368              -4.4637
       ...                                ...                  ...
       190                          0.8908107              24.2402
      -------------------------------------------------------------
                  HL-Gap            0.0079675 Eh            0.2168 eV
             Fermi-level           -0.1951528 Eh           -5.3104 eV

 SCC (total)                   0 d,  0 h,  0 min, 21.221 sec
 SCC setup                      ...        0 min,  0.024 sec (  0.112%)
 Dispersion                     ...        0 min,  0.047 sec (  0.222%)
 classical contributions        ...        0 min,  0.005 sec (  0.026%)
 integral evaluation            ...        0 min,  0.399 sec (  1.882%)
 iterations                     ...        0 min, 20.048 sec ( 94.470%)
 molecular gradient             ...        0 min,  0.687 sec (  3.236%)
 printout                       ...        0 min,  0.011 sec (  0.053%)

         :::::::::::::::::::::::::::::::::::::::::::::::::::::
         ::                     SUMMARY                     ::
         :::::::::::::::::::::::::::::::::::::::::::::::::::::
         :: total energy            -122.014019247982 Eh    ::
         :: gradient norm              0.316676786343 Eh/a0 ::
         :: HOMO-LUMO gap              0.216805614751 eV    ::
         ::.................................................::
         :: SCC energy              -123.424871275216 Eh    ::
         :: -> isotropic ES            0.407210263487 Eh    ::
         :: -> anisotropic ES          0.013620061095 Eh    ::
         :: -> anisotropic XC          0.028925682721 Eh    ::
         :: -> dispersion             -0.079645304584 Eh    ::
         :: repulsion energy           1.410852027235 Eh    ::
         :: add. restraining           0.000000000000 Eh    ::
         :: total charge              -1.000000000000 e     ::
         :::::::::::::::::::::::::::::::::::::::::::::::::::::

           -------------------------------------------------
          |                Property Printout                |
           -------------------------------------------------

    * Orbital Energies and Occupations

         #    Occupation            Energy/Eh            Energy/eV
      -------------------------------------------------------------
         1        2.0000           -0.6642206             -18.0744
       ...           ...                  ...                  ...
        95        2.0000           -0.3393723              -9.2348
        96        2.0000           -0.3346771              -9.1070
        97        2.0000           -0.3302735              -8.9872
        98        2.0000           -0.3289132              -8.9502
        99        2.0000           -0.3228526              -8.7853
       100        2.0000           -0.3212585              -8.7419
       101        2.0000           -0.3163065              -8.6071
       102        2.0000           -0.3105986              -8.4518
       103        2.0000           -0.3085082              -8.3949
       104        2.0000           -0.3020238              -8.2185
       105        2.0000           -0.2190987              -5.9620
       106        2.0000           -0.2082513              -5.6668
       107        1.9703           -0.1991365              -5.4188 (HOMO)
       108        0.0297           -0.1911690              -5.2020 (LUMO)
       109        0.0000           -0.1830344              -4.9806
       110                         -0.1719516              -4.6790
       111                         -0.1670963              -4.5469
       112                         -0.1640368              -4.4637
       113                         -0.1552776              -4.2253
       114                         -0.1488056              -4.0492
       115                         -0.1290102              -3.5105
       116                         -0.1192980              -3.2463
       117                         -0.0380095              -1.0343
       118                         -0.0208758              -0.5681
       ...                                ...                  ...
       190                          0.8908107              24.2402
      -------------------------------------------------------------
                  HL-Gap            0.0079675 Eh            0.2168 eV
             Fermi-level           -0.1951528 Eh           -5.3104 eV

     #   Z          covCN         q      C6AA      α(0)
     1   7 N        2.679    -0.229    26.015     7.575
     2   6 C        3.717    -0.018    21.021     6.550
     3   6 C        2.742     0.273    22.375     7.745
     4   8 O        0.859    -0.459    22.897     6.416
     5   7 N        2.675    -0.183    24.969     7.421
     6   6 C        3.768     0.026    20.163     6.400
     7   6 C        2.766     0.281    22.251     7.725
     8   6 C        3.779     0.028    20.124     6.391
     9   8 O        0.860    -0.429    22.274     6.328
    10   7 N        2.700    -0.183    24.958     7.420
    11   6 C        3.779    -0.051    21.511     6.608
    12   6 C        2.753     0.281    22.242     7.723
    13   6 C        3.790    -0.084    22.106     6.696
    14   6 C        3.750    -0.021    21.011     6.537
    15   8 O        0.863    -0.402    21.723     6.249
    16   6 C        2.684     0.358    20.920     7.485
    17   7 N        2.680    -0.188    25.087     7.439
    18   8 O        0.856    -0.606    26.278     6.873
    19   8 O        0.856    -0.555    25.046     6.710
    20   6 C        2.761     0.249    22.816     7.822
    21   6 C        3.785     0.029    20.096     6.385
    22   8 O        0.858    -0.447    22.634     6.379
    23   7 N        2.683    -0.202    25.394     7.484
    24   6 C        3.749    -0.108    22.621     6.783
    25   6 C        2.740     0.260    22.621     7.787
    26   6 C        3.744    -0.024    21.082     6.550
    27   8 O        0.858    -0.439    22.479     6.357
    28   7 N        2.687    -0.159    24.450     7.344
    29   6 C        2.755     0.277    22.318     7.736
    30   8 O        0.868    -0.455    22.813     6.404
    31   6 C        3.737    -0.047    21.505     6.618
    32   6 C        2.999    -0.014    28.339     8.733
    33   6 C        3.081     0.003    27.858     8.653
    34   6 C        3.232    -0.017    27.580     8.525
    35   7 N        2.786    -0.130    23.824     7.249
    36   6 C        3.016     0.041    27.071     8.535
    37   6 C        2.921    -0.036    28.892     8.815
    38   6 C        2.894    -0.060    29.490     8.904
    39   6 C        2.939    -0.043    29.067     8.842
    40   6 C        2.913    -0.043    29.072     8.842
    41   1 H        0.862     0.176     1.234     1.740
    42   1 H        0.901     0.086     1.922     2.169
    43   1 H        0.925     0.078     2.000     2.212
    44   1 H        0.860     0.175     1.245     1.748
    45   1 H        0.923     0.069     2.092     2.262
    46   1 H        0.912     0.064     2.150     2.293
    47   1 H        0.861     0.192     1.149     1.679
    48   1 H        0.914     0.022     2.712     2.576
    49   1 H        0.921     0.073     2.054     2.241
    50   1 H        0.924     0.009     2.911     2.668
    51   1 H        0.917     0.014     2.825     2.629
    52   1 H        0.922     0.062     2.175     2.306
    53   1 H        0.920     0.090     1.882     2.146
    54   1 H        0.854     0.199     1.112     1.652
    55   1 H        0.920     0.066     2.134     2.285
    56   1 H        0.860     0.168     1.283     1.774
    57   1 H        0.922     0.041     2.433     2.439
    58   1 H        0.923     0.074     2.043     2.235
    59   1 H        0.923     0.074     2.043     2.235
    60   1 H        0.927     0.066     2.131     2.283
    61   1 H        0.924     0.103     1.762     2.076
    62   1 H        0.861     0.209     1.060     1.613
    63   1 H        0.868     0.021     2.731     2.588
    64   1 H        0.922     0.087     1.905     2.159
    65   1 H        0.928     0.059     2.205     2.322
    66   1 H        0.860     0.161     1.326     1.804
    67   1 H        0.927     0.031     2.579     2.511
    68   1 H        0.920     0.014     2.827     2.630
    69   1 H        0.925     0.018     2.768     2.602
    70   1 H        0.927     0.026     2.640     2.541

 Mol. C6AA /au·bohr⁶  :      56160.624370
 Mol. C8AA /au·bohr⁸  :    1291172.781155
 Mol. α(0) /au        :        359.451922


Wiberg/Mayer (AO) data.
largest (>0.10) Wiberg bond orders for each atom

 ---------------------------------------------------------------------------
     #   Z sym  total        # sym  WBO       # sym  WBO       # sym  WBO
 ---------------------------------------------------------------------------
     1   7 N    3.352 --     7 C    1.147     2 C    0.994    41 H    0.943
                             9 O    0.179
     2   6 C    3.963 --     1 N    0.994     3 C    0.961    43 H    0.954
                            42 H    0.941
     3   6 C    3.951 --     4 O    1.645     5 N    1.282     2 C    0.961
     4   8 O    1.965 --     3 C    1.645     5 N    0.187
     5   7 N    3.438 --     3 C    1.282     6 C    0.950    44 H    0.942
                             4 O    0.187
     6   6 C    3.955 --    31 C    0.959    45 H    0.954    29 C    0.950
                             5 N    0.950
     7   6 C    3.942 --     9 O    1.703     1 N    1.147     8 C    1.006
     8   6 C    3.958 --     7 C    1.006    10 N    0.977    11 C    0.926
                            46 H    0.924
     9   8 O    2.030 --     7 C    1.703     1 N    0.179
    10   7 N    3.434 --    12 C    1.241     8 C    0.977    47 H    0.930
                            15 O    0.202
    11   6 C    3.968 --    13 C    0.999    48 H    0.978    49 H    0.967
                             8 C    0.926
    12   6 C    3.959 --    15 O    1.726    10 N    1.241    14 C    0.939
    13   6 C    3.955 --    11 C    0.999    51 H    0.974    50 H    0.960
                            16 C    0.895
    14   6 C    3.959 --    17 N    1.011    52 H    0.948    12 C    0.939
                            53 H    0.938
    15   8 O    2.047 --    12 C    1.726    10 N    0.202
    16   6 C    3.948 --    19 O    1.571    18 O    1.464    13 C    0.895
    17   7 N    3.453 --    20 C    1.268    14 C    1.011    54 H    0.887
                            22 O    0.202
    18   8 O    1.778 --    16 C    1.464    19 O    0.237
    19   8 O    1.882 --    16 C    1.571    18 O    0.237
    20   6 C    3.957 --    22 O    1.659    17 N    1.268    21 C    0.943
    21   6 C    3.957 --    24 C    1.014    23 N    0.958    20 C    0.943
                            55 H    0.935
    22   8 O    1.983 --    20 C    1.659    17 N    0.202
    23   7 N    3.406 --    25 C    1.230    21 C    0.958    56 H    0.943
                            27 O    0.189
    24   6 C    3.986 --    21 C    1.014    57 H    0.983    59 H    0.978
                            58 H    0.977
    25   6 C    3.926 --    27 O    1.651    23 N    1.230    26 C    0.973
    26   6 C    3.955 --    28 N    0.986    25 C    0.973    60 H    0.955
                            61 H    0.922
    27   8 O    2.006 --    25 C    1.651    23 N    0.189
    28   7 N    3.439 --    29 C    1.280    26 C    0.986    62 H    0.916
                            30 O    0.187
    29   6 C    3.946 --    30 O    1.654    28 N    1.280     6 C    0.950
    30   8 O    1.977 --    29 C    1.654    28 N    0.187
    31   6 C    3.977 --    32 C    1.023    63 H    0.959     6 C    0.959
                            64 H    0.956
    32   6 C    3.980 --    33 C    1.644    34 C    1.159    31 C    1.023
    33   6 C    3.954 --    32 C    1.644    35 N    1.138    65 H    0.966
    34   6 C    3.985 --    37 C    1.382    36 C    1.238    32 C    1.159
    35   7 N    3.464 --    36 C    1.179    33 C    1.138    66 H    0.939
    36   6 C    3.959 --    38 C    1.342    34 C    1.238    35 N    1.179
    37   6 C    3.995 --    39 C    1.456    34 C    1.382    67 H    0.960
                            38 C    0.117
    38   6 C    3.979 --    40 C    1.453    36 C    1.342    68 H    0.970
                            37 C    0.117
    39   6 C    3.990 --    37 C    1.456    40 C    1.414    69 H    0.968
    40   6 C    3.987 --    38 C    1.453    39 C    1.414    70 H    0.973
    41   1 H    0.969 --     1 N    0.943
    42   1 H    0.992 --     2 C    0.941
    43   1 H    0.993 --     2 C    0.954
    44   1 H    0.969 --     5 N    0.942
    45   1 H    0.995 --     6 C    0.954
    46   1 H    0.996 --     8 C    0.924
    47   1 H    0.963 --    10 N    0.930
    48   1 H    1.000 --    11 C    0.978
    49   1 H    0.994 --    11 C    0.967
    50   1 H    1.000 --    13 C    0.960
    51   1 H    1.000 --    13 C    0.974
    52   1 H    0.996 --    14 C    0.948
    53   1 H    0.992 --    14 C    0.938
    54   1 H    0.960 --    17 N    0.887
    55   1 H    0.995 --    21 C    0.935
    56   1 H    0.972 --    23 N    0.943
    57   1 H    0.998 --    24 C    0.983
    58   1 H    0.994 --    24 C    0.977
    59   1 H    0.995 --    24 C    0.978
    60   1 H    0.995 --    26 C    0.955
    61   1 H    0.987 --    26 C    0.922
    62   1 H    0.956 --    28 N    0.916
    63   1 H    0.999 --    31 C    0.959
    64   1 H    0.992 --    31 C    0.956
    65   1 H    0.996 --    33 C    0.966
    66   1 H    0.974 --    35 N    0.939
    67   1 H    0.999 --    37 C    0.960
    68   1 H    0.999 --    38 C    0.970
    69   1 H    0.999 --    39 C    0.968
    70   1 H    0.999 --    40 C    0.973
 ---------------------------------------------------------------------------

Topologies differ in total number of bonds
Writing topology from bond orders to xtbtopo.mol

molecular dipole:
                 x           y           z       tot (Debye)
 q only:        2.453       9.635       8.707
   full:        2.440       9.696       9.215      34.561
molecular quadrupole (traceless):
                xx          xy          yy          xz          yz          zz
 q only:       43.190     -51.221     -32.753     -43.851    -134.308     -10.437
  q+dip:       27.082     -56.720     -25.784     -45.929    -142.112      -1.297
   full:       29.358     -57.017     -27.539     -47.304    -142.001      -1.819


           -------------------------------------------------
          | TOTAL ENERGY             -122.014019247982 Eh   |
          | GRADIENT NORM               0.316676786343 Eh/α |
          | HOMO-LUMO GAP               0.216805614751 eV   |
           -------------------------------------------------

------------------------------------------------------------------------
 * finished run on 2026/05/23 at 08:18:36.323     
------------------------------------------------------------------------
 total:
 * wall-time:     0 d,  0 h,  0 min, 21.775 sec
 *  cpu-time:     0 d,  0 h,  0 min, 32.247 sec
 * ratio c/w:     1.481 speedup
 SCF:
 * wall-time:     0 d,  0 h,  0 min, 21.222 sec
 *  cpu-time:     0 d,  0 h,  0 min, 31.655 sec
 * ratio c/w:     1.492 speedup

normal termination of xtb
