      -----------------------------------------------------------      
     |                   =====================                   |     
     |                           x T B                           |     
     |                   =====================                   |     
     |                         S. Grimme                         |     
     |          Mulliken Center for Theoretical Chemistry        |     
     |                    University of Bonn                     |     
      -----------------------------------------------------------      

   * xtb version 6.7.1 (26dd68d) compiled by 'froitzheim@fs7' on 2026-05-14

   xtb is free software: you can redistribute it and/or modify it under
   the terms of the GNU Lesser General Public License as published by
   the Free Software Foundation, either version 3 of the License, or
   (at your option) any later version.
   
   xtb is distributed in the hope that it will be useful,
   but WITHOUT ANY WARRANTY; without even the implied warranty of
   MERCHANTABILITY or FITNESS FOR A PARTICULAR PURPOSE.  See the
   GNU Lesser General Public License for more details.
   
   Cite this work as:
   * C. Bannwarth, E. Caldeweyher, S. Ehlert, A. Hansen, P. Pracht,
     J. Seibert, S. Spicher, S. Grimme, WIREs Comput. Mol. Sci., 2020, 11,
     e01493. DOI: 10.1002/wcms.1493
   
   for g-xTB:
   * T. Froitzheim, M. Müller, A. Hansen, S. Grimme, ChemRxiv, 2025, preprint.
     DOI: 10.26434/chemrxiv-2025-bjxv
   for GFN2-xTB:
   * C. Bannwarth, S. Ehlert and S. Grimme., J. Chem. Theory Comput., 2019,
     15, 1652-1671. DOI: 10.1021/acs.jctc.8b01176
   for GFN1-xTB:
   * S. Grimme, C. Bannwarth, P. Shushkov, J. Chem. Theory Comput., 2017,
     13, 1989-2009. DOI: 10.1021/acs.jctc.7b00118
   for GFN0-xTB:
   * P. Pracht, E. Caldeweyher, S. Ehlert, S. Grimme, ChemRxiv, 2019, preprint.
     DOI: 10.26434/chemrxiv.8326202.v1
   for GFN-FF:
   * S. Spicher and S. Grimme, Angew. Chem. Int. Ed., 2020, 59, 15665-15673.
     DOI: 10.1002/anie.202004239
   
   for ALPB and GBSA implicit solvation:
   * S. Ehlert, M. Stahn, S. Spicher, S. Grimme, J. Chem. Theory Comput.,
     2021, 17, 4250-4261. DOI: 10.1021/acs.jctc.1c00471
   
   for ddCOSMO and CPCM-X implicit solvation:
   * M. Stahn, S. Ehlert, S. Grimme, J. Phys. Chem. A,
     2023, XX, XXXX-XXXX. DOI: 10.1021/acs.jpca.3c04382
   
   for DFT-D4:
   * E. Caldeweyher, C. Bannwarth and S. Grimme, J. Chem. Phys., 2017,
     147, 034112. DOI: 10.1063/1.4993215
   * E. Caldeweyher, S. Ehlert, A. Hansen, H. Neugebauer, S. Spicher,
     C. Bannwarth and S. Grimme, J. Chem. Phys., 2019, 150, 154122.
     DOI: 10.1063/1.5090222
   * E. Caldeweyher, J.-M. Mewes, S. Ehlert and S. Grimme, Phys. Chem. Chem. Phys.
     2020, 22, 8499-8512. DOI: 10.1039/D0CP00502A
   
   for sTDA-xTB:
   * S. Grimme and C. Bannwarth, J. Chem. Phys., 2016, 145, 054103.
     DOI: 10.1063/1.4959605
   
   in the mass-spec context:
   * V. Asgeirsson, C. Bauer and S. Grimme, Chem. Sci., 2017, 8, 4879.
     DOI: 10.1039/c7sc00601b
   * J. Koopman and S. Grimme, ACS Omega 2019, 4, 12, 15120-15133.
     DOI: 10.1021/acsomega.9b02011
   
   for metadynamics refer to:
   * S. Grimme, J. Chem. Theory Comput., 2019, 155, 2847-2862
     DOI: 10.1021/acs.jctc.9b00143
   
   for SPH calculations refer to:
   * S. Spicher and S. Grimme, J. Chem. Theory Comput., 2021, 17, 1701-1714
     DOI: 10.1021/acs.jctc.0c01306
   
   for ONIOM refer to:
   * C. Plett, A. Katbashev, S. Ehlert, S. Grimme, M. Bursch,
     Phys. Chem. Chem. Phys., 2023, 25, 17860-17868. DOI: 10.1039/D3CP02178E
   
   for DIPRO refer to:
   * J. Kohn, N. Gildemeister, S. Grimme, D. Fazzi, A. Hansen,
     J. Chem. Phys. 159, 144106 (2023). DOI: 10.1063/5.0167484
   
   for PTB refer to:
   * S. Grimme, M. Mueller, A. Hansen, J. Chem. Phys., 2023, 158, 124111.
     DOI: 10.1063/5.0137838
   
   with help from (in alphabetical order)
   P. Atkinson, C. Bannwarth, F. Bohle, G. Brandenburg, E. Caldeweyher,
   M. Checinski, S. Dohm, S. Ehlert, S. Ehrlich, M. Friede, T. Froitzheim,
   I. Gerasimov, C. Hölzer, A. Katbashev, J. Kohn, J. Koopman, C. Lavigne,
   S. Lehtola, F. März, M. Müller, F. Musil, H. Neugebauer, J. Pisarek,
   C. Plett, P. Pracht, F. Pultar, J. Seibert, P. Shushkov, S. Spicher,
   M. Stahn, M. Steiner, T. Strunk, J. Stückrath, T. Rose, and J. Unsleber
   
 * started run on 2026/05/23 at 12:29:21.698     
   ID    Z sym.   atoms
    1    7 N      1, 5, 10, 17, 18, 25, 30, 33
    2    6 C      2, 3, 6-8, 11-14, 19-23, 26-28, 31, 32, 34, 36-39
    3    8 O      4, 9, 15, 16, 24, 29, 35
    4    1 H      40-77

           -------------------------------------------------
          |                Calculation Setup                |
           -------------------------------------------------

          program call               : /home/xchen/software/xtb-6.7.1-gxtb/bin/xtb /home/xchen/Test/benchmark/md_sampled/05_5_0513_0/snap_0048.xyz --charge 0 --gxtb --norestart
          coordinate file            : /home/xchen/Test/benchmark/md_sampled/05_5_0513_0/snap_0048.xyz
          omp threads                :                    48

core increment energy         -1.7251241620057E+03 Eh
dispersion energy              1.6846462092121E-02 Eh
molecular charge               0.0000000000000E+00 e
number of electrons            2.1599999999805E+02 e
number of unpaired electrons   0.0000000000000E+00 e
wavefunction                   restricted
integral cutoff                2.6907767250513E+01 bohr
energy convergence             1.0000000000000E-06 Eh
density convergence            2.0000000000000E-05 e

------------------------------------------------------------
  cycle        total energy    energy error   density error
------------------------------------------------------------
      1     -1901.065764265  -1.7595845E+02   0.0000000E+00
      2     -1901.398727536  -3.3296327E-01   2.3316929E-02
      3     -1901.610253840  -2.1152630E-01   1.8481946E-02
      4     -1902.053178700  -4.4292486E-01   1.4691210E-02
      5     -1902.061477355  -8.2986549E-03   1.0927996E-03
      6     -1902.062061907  -5.8455207E-04   2.3822027E-04
      7     -1902.062117655  -5.5748092E-05   7.0632991E-05
      8     -1902.062121991  -4.3359580E-06   2.1942913E-05
      9     -1902.062122660  -6.6975576E-07   5.7115747E-06
------------------------------------------------------------

electronic energy             -1.7695480711685E+02 Eh
total energy                  -1.9020621226605E+03 Eh

Post processing:
 | Mayer-Wiberg bond orders
 | Molecular Multipole Moments

 total:                                  11.957 sec
 - increment                              0.000 sec (  0%)
 - repulsion                              0.010 sec (  0%)
 - dispersion                             0.321 sec (  2%)
 - coulomb                                0.113 sec (  0%)
 - exchange                               0.006 sec (  0%)
 - hamiltonian                            0.286 sec (  2%)
 - acp                                    0.239 sec (  2%)
 - spin polarization                      0.000 sec (  0%)
 - post processing                        0.100 sec (  0%)
 - scc                                   10.076 sec ( 84%)
 - coulomb gradient                       0.039 sec (  0%)
 - dispersion gradient                    0.030 sec (  0%)
 - exchange gradient                      0.155 sec (  1%)
 - repulsion gradient                     0.006 sec (  0%)
 - acp gradient                           0.286 sec (  2%)
 - hamiltonian gradient                   0.385 sec (  3%)
 - gradient                               0.901 sec (  7%)

         :::::::::::::::::::::::::::::::::::::::::::::::::::::
         ::                     SUMMARY                     ::
         :::::::::::::::::::::::::::::::::::::::::::::::::::::
         :: total energy           -1902.062122660456 Eh    ::
         :: gradient norm              0.381061671110 Eh/a0 ::
         :: HOMO-LUMO gap              9.018071258727 eV    ::
         ::.................................................::
         :: add. restraining           0.000000000000 Eh    ::
         :: total charge              -0.000000000000 e     ::
         :::::::::::::::::::::::::::::::::::::::::::::::::::::

           -------------------------------------------------
          |                Property Printout                |
           -------------------------------------------------

    * Orbital Energies and Occupations
------------------------------------------------------------------
      #    Occupation            Energy/Eh            Energy/eV
------------------------------------------------------------------
      1        2.0000           -1.3537032             -36.8361
    ...           ...                  ...                  ...
     96        2.0000           -0.3884883             -10.5713
     97        2.0000           -0.3861528             -10.5078
     98        2.0000           -0.3796706             -10.3314
     99        2.0000           -0.3773399             -10.2679
    100        2.0000           -0.3760953             -10.2341
    101        2.0000           -0.3742138             -10.1829
    102        2.0000           -0.3726070             -10.1392
    103        2.0000           -0.3679165             -10.0115
    104        2.0000           -0.3642027              -9.9105
    105        2.0000           -0.3600469              -9.7974
    106        2.0000           -0.3544435              -9.6449
    107        2.0000           -0.3522616              -9.5855
    108        2.0000           -0.3415626              -9.2944 (HOMO)
    109                         -0.0101546              -0.2763 (LUMO)
    110                         -0.0043255              -0.1177
    111                          0.0060129               0.1636
    112                          0.0203610               0.5540
    113                          0.0266259               0.7245
    114                          0.0378005               1.0286
    115                          0.0449055               1.2219
    116                          0.0840562               2.2873
    117                          0.1651466               4.4939
    118                          0.1753581               4.7717
    119                          0.1819577               4.9513
    ...                                ...                  ...
    194                          0.8345326              22.7088
------------------------------------------------------------------
               HL-Gap            0.3314080 Eh            9.0181 eV
------------------------------------------------------------------

Atomic charges and shell populations (in atomic units):
------------------------------------------------------
     #    Z                q          p(s)       p(p)
------------------------------------------------------
     1    7 N      -0.384072      1.436144   3.947927
     2    6 C      -0.033681      1.131356   2.902325
     3    6 C       0.408892      1.103253   2.487855
     4    8 O      -0.566847      1.864196   4.702650
     5    7 N      -0.306987      1.348885   3.958102
     6    6 C       0.006365      1.113402   2.880233
     7    6 C       0.407759      1.122859   2.469382
     8    6 C       0.019207      1.106832   2.873961
     9    8 O      -0.477885      1.868345   4.609540
    10    7 N      -0.357127      1.348991   4.008135
    11    6 C      -0.169419      1.154387   3.015032
    12    6 C       0.423264      1.103581   2.473155
    13    6 C       0.390197      1.122904   2.486899
    14    6 C       0.015376      1.133638   2.850987
    15    8 O      -0.524258      1.851620   4.672638
    16    8 O      -0.533054      1.852713   4.680341
    17    7 N      -0.431082      1.406398   4.024683
    18    7 N      -0.396734      1.377715   4.019019
    19    6 C      -0.098558      1.121946   2.976611
    20    6 C       0.418720      1.108231   2.473049
    21    6 C      -0.264154      1.167688   3.096466
    22    6 C      -0.264165      1.156165   3.108000
    23    6 C      -0.006693      1.126614   2.880079
    24    8 O      -0.490178      1.851684   4.638494
    25    7 N      -0.296029      1.354288   3.941741
    26    6 C      -0.166297      1.152668   3.013629
    27    6 C       0.408176      1.110312   2.481512
    28    6 C       0.023802      1.111897   2.864301
    29    8 O      -0.615864      1.854325   4.761539
    30    7 N      -0.355992      1.556644   3.799348
    31    6 C      -0.086794      1.145806   2.940989
    32    6 C       0.089161      1.127121   2.783718
    33    7 N      -0.249221      1.359109   3.890112
    34    6 C       0.058444      1.121849   2.819707
    35    8 O      -0.554218      1.786160   4.768059
    36    6 C      -0.093492      1.155222   2.938269
    37    6 C      -0.264544      1.156818   3.107726
    38    6 C      -0.179029      1.156225   3.022805
    39    6 C      -0.257459      1.154118   3.103341
    40    1 H       0.293065      0.706935
    41    1 H       0.143379      0.856621
    42    1 H       0.277649      0.722351
    43    1 H       0.137125      0.862875
    44    1 H       0.148508      0.851492
    45    1 H       0.271454      0.728546
    46    1 H       0.116702      0.883298
    47    1 H       0.130851      0.869149
    48    1 H       0.134913      0.865087
    49    1 H       0.254457      0.745543
    50    1 H       0.244352      0.755648
    51    1 H       0.293652      0.706348
    52    1 H       0.118363      0.881637
    53    1 H       0.063369      0.936631
    54    1 H       0.106481      0.893519
    55    1 H       0.104816      0.895184
    56    1 H       0.102546      0.897454
    57    1 H       0.093935      0.906065
    58    1 H       0.098790      0.901210
    59    1 H       0.127015      0.872985
    60    1 H       0.270802      0.729198
    61    1 H       0.118118      0.881882
    62    1 H       0.121040      0.878960
    63    1 H       0.137577      0.862423
    64    1 H       0.137125      0.862875
    65    1 H       0.273550      0.726450
    66    1 H       0.086948      0.913052
    67    1 H       0.100234      0.899766
    68    1 H       0.361589      0.638411
    69    1 H       0.117831      0.882169
    70    1 H       0.101564      0.898436
    71    1 H       0.096992      0.903008
    72    1 H       0.098693      0.901307
    73    1 H       0.109049      0.890951
    74    1 H       0.075745      0.924255
    75    1 H       0.105740      0.894260
    76    1 H       0.077202      0.922798
    77    1 H       0.103255      0.896745
------------------------------------------------------


Wiberg/Mayer (AO) data.
largest (>0.10) Wiberg bond orders for each atom

 ---------------------------------------------------------------------------
     #   Z sym  total        # sym  WBO       # sym  WBO       # sym  WBO
 ---------------------------------------------------------------------------
     1   7 N    3.155 --     7 C    1.112     2 C    0.973    40 O    0.844
                             9 C    0.124
     2   6 C    3.936 --     1 N    0.973    34 C    0.956     3 C    0.952
                            41 O    0.935
     3   6 C    3.877 --     4 C    1.600     5 N    1.248     2 C    0.952
     4   8 C    1.877 --     3 C    1.600     5 N    0.152
     5   7 N    3.354 --     3 C    1.248     6 C    0.977    42 O    0.875
                             4 C    0.152
     6   6 C    3.930 --    27 C    0.984     5 N    0.977    43 O    0.931
                            36 C    0.913
     7   6 C    3.867 --     9 C    1.735     1 N    1.112     8 C    0.946
     8   6 C    3.936 --    11 C    0.975    10 N    0.958     7 C    0.946
                            44 O    0.929
     9   8 C    1.977 --     7 C    1.735     1 N    0.124
    10   7 N    3.285 --    12 C    1.169     8 C    0.958    45 O    0.883
                            15 C    0.163
    11   6 C    3.954 --     8 C    0.975    13 C    0.962    47 O    0.948
                            46 O    0.944
    12   6 C    3.863 --    15 C    1.692    10 N    1.169    14 C    0.927
    13   6 C    3.855 --    16 C    1.670    17 N    1.184    11 C    0.962
    14   6 C    3.927 --    19 C    0.965    18 N    0.962    48 O    0.936
                            12 C    0.927
    15   8 C    1.965 --    12 C    1.692    10 N    0.163
    16   8 C    1.968 --    13 C    1.670    17 N    0.163
    17   7 N    3.222 --    13 C    1.184    50 O    0.917    49 O    0.913
                            16 C    0.163
    18   7 N    3.276 --    20 C    1.188    14 C    0.962    51 O    0.838
                            24 C    0.170
    19   6 C    3.973 --    22 C    1.008    21 C    1.006    14 C    0.965
                            52 O    0.936
    20   6 C    3.872 --    24 C    1.726    18 N    1.188    23 C    0.888
    21   6 C    3.958 --    19 C    1.006    53 O    0.976    54 O    0.970
                            55 O    0.968
    22   6 C    3.954 --    19 C    1.008    58 O    0.972    56 O    0.970
                            57 O    0.969
    23   6 C    3.924 --    26 C    0.978    25 N    0.963    59 O    0.950
                            20 C    0.888
    24   8 C    2.012 --    20 C    1.726    18 N    0.170
    25   7 N    3.387 --    27 C    1.282    23 C    0.963    60 O    0.897
                            29 C    0.150
    26   6 C    3.954 --    28 C    0.983    23 C    0.978    61 O    0.956
                            62 O    0.951
    27   6 C    3.863 --    29 C    1.508    25 N    1.282     6 C    0.984
    28   6 C    3.961 --    31 C    1.617    30 N    1.244    26 C    0.983
    29   8 C    1.872 --    27 C    1.508    25 N    0.150
    30   7 N    3.000 --    32 C    1.543    28 C    1.244    33 N    0.100
    31   6 C    3.888 --    28 C    1.617    33 N    1.127    63 O    0.948
                            32 C    0.113
    32   6 C    3.919 --    30 N    1.543    33 N    1.275    64 O    0.942
                            31 C    0.113
    33   7 N    3.476 --    32 C    1.275    31 C    1.127    65 O    0.894
                            30 N    0.100
    34   6 C    3.889 --    35 C    0.980     2 C    0.956    66 O    0.950
                            67 O    0.943
    35   8 C    1.893 --    34 C    0.980    68 O    0.834
    36   6 C    3.953 --    37 C    1.015    38 C    0.978    69 O    0.938
                             6 C    0.913
    37   6 C    3.956 --    36 C    1.015    72 O    0.970    70 O    0.969
                            71 O    0.968
    38   6 C    3.961 --    39 C    1.031    36 C    0.978    73 O    0.959
                            74 O    0.955
    39   6 C    3.962 --    38 C    1.031    77 O    0.972    76 O    0.971
                            75 O    0.967
    40   1 O    0.914 --     1 N    0.844
    41   1 O    0.979 --     2 C    0.935
    42   1 O    0.923 --     5 N    0.875
    43   1 O    0.981 --     6 C    0.931
    44   1 O    0.978 --     8 C    0.929
    45   1 O    0.926 --    10 N    0.883
    46   1 O    0.986 --    11 C    0.944
    47   1 O    0.983 --    11 C    0.948
    48   1 O    0.982 --    14 C    0.936
    49   1 O    0.935 --    17 N    0.913
    50   1 O    0.940 --    17 N    0.917
    51   1 O    0.914 --    18 N    0.838
    52   1 O    0.986 --    19 C    0.936
    53   1 O    0.996 --    21 C    0.976
    54   1 O    0.989 --    21 C    0.970
    55   1 O    0.989 --    21 C    0.968
    56   1 O    0.989 --    22 C    0.970
    57   1 O    0.991 --    22 C    0.969
    58   1 O    0.990 --    22 C    0.972
    59   1 O    0.984 --    23 C    0.950
    60   1 O    0.927 --    25 N    0.897
    61   1 O    0.986 --    26 C    0.956
    62   1 O    0.985 --    26 C    0.951
    63   1 O    0.981 --    31 C    0.948
    64   1 O    0.981 --    32 C    0.942
    65   1 O    0.925 --    33 N    0.894
    66   1 O    0.992 --    34 C    0.950
    67   1 O    0.990 --    34 C    0.943
    68   1 O    0.869 --    35 C    0.834
    69   1 O    0.986 --    36 C    0.938
    70   1 O    0.990 --    37 C    0.969
    71   1 O    0.991 --    37 C    0.968
    72   1 O    0.990 --    37 C    0.970
    73   1 O    0.988 --    38 C    0.959
    74   1 O    0.994 --    38 C    0.955
    75   1 O    0.989 --    39 C    0.967
    76   1 O    0.994 --    39 C    0.971
    77   1 O    0.989 --    39 C    0.972
 ---------------------------------------------------------------------------

Topologies differ in total number of bonds
Writing topology from bond orders to xtbtopo.mol

Atomic dipole moments (in atomic units):
---------------------------------------------------------
     #    Z                 x            y            z
---------------------------------------------------------
           total    -1.975835    -1.952699    -1.217523
---------------------------------------------------------
         |total|     3.033038     7.709213 Debye


           -------------------------------------------------
          | TOTAL ENERGY            -1902.062122660456 Eh   |
          | GRADIENT NORM               0.381061671110 Eh/α |
           -------------------------------------------------

------------------------------------------------------------------------
 * finished run on 2026/05/23 at 12:29:34.454     
------------------------------------------------------------------------
 total:
 * wall-time:     0 d,  0 h,  0 min, 12.754 sec
 *  cpu-time:     0 d,  0 h,  0 min, 24.107 sec
 * ratio c/w:     1.890 speedup
 SCF:
 * wall-time:     0 d,  0 h,  0 min, 12.284 sec
 *  cpu-time:     0 d,  0 h,  0 min, 23.676 sec
 * ratio c/w:     1.927 speedup

normal termination of xtb
