      -----------------------------------------------------------      
     |                   =====================                   |     
     |                           x T B                           |     
     |                   =====================                   |     
     |                         S. Grimme                         |     
     |          Mulliken Center for Theoretical Chemistry        |     
     |                    University of Bonn                     |     
      -----------------------------------------------------------      

   * xtb version 6.7.1 (26dd68d) compiled by 'froitzheim@fs7' on 2026-05-14

   xtb is free software: you can redistribute it and/or modify it under
   the terms of the GNU Lesser General Public License as published by
   the Free Software Foundation, either version 3 of the License, or
   (at your option) any later version.
   
   xtb is distributed in the hope that it will be useful,
   but WITHOUT ANY WARRANTY; without even the implied warranty of
   MERCHANTABILITY or FITNESS FOR A PARTICULAR PURPOSE.  See the
   GNU Lesser General Public License for more details.
   
   Cite this work as:
   * C. Bannwarth, E. Caldeweyher, S. Ehlert, A. Hansen, P. Pracht,
     J. Seibert, S. Spicher, S. Grimme, WIREs Comput. Mol. Sci., 2020, 11,
     e01493. DOI: 10.1002/wcms.1493
   
   for g-xTB:
   * T. Froitzheim, M. Müller, A. Hansen, S. Grimme, ChemRxiv, 2025, preprint.
     DOI: 10.26434/chemrxiv-2025-bjxv
   for GFN2-xTB:
   * C. Bannwarth, S. Ehlert and S. Grimme., J. Chem. Theory Comput., 2019,
     15, 1652-1671. DOI: 10.1021/acs.jctc.8b01176
   for GFN1-xTB:
   * S. Grimme, C. Bannwarth, P. Shushkov, J. Chem. Theory Comput., 2017,
     13, 1989-2009. DOI: 10.1021/acs.jctc.7b00118
   for GFN0-xTB:
   * P. Pracht, E. Caldeweyher, S. Ehlert, S. Grimme, ChemRxiv, 2019, preprint.
     DOI: 10.26434/chemrxiv.8326202.v1
   for GFN-FF:
   * S. Spicher and S. Grimme, Angew. Chem. Int. Ed., 2020, 59, 15665-15673.
     DOI: 10.1002/anie.202004239
   
   for ALPB and GBSA implicit solvation:
   * S. Ehlert, M. Stahn, S. Spicher, S. Grimme, J. Chem. Theory Comput.,
     2021, 17, 4250-4261. DOI: 10.1021/acs.jctc.1c00471
   
   for ddCOSMO and CPCM-X implicit solvation:
   * M. Stahn, S. Ehlert, S. Grimme, J. Phys. Chem. A,
     2023, XX, XXXX-XXXX. DOI: 10.1021/acs.jpca.3c04382
   
   for DFT-D4:
   * E. Caldeweyher, C. Bannwarth and S. Grimme, J. Chem. Phys., 2017,
     147, 034112. DOI: 10.1063/1.4993215
   * E. Caldeweyher, S. Ehlert, A. Hansen, H. Neugebauer, S. Spicher,
     C. Bannwarth and S. Grimme, J. Chem. Phys., 2019, 150, 154122.
     DOI: 10.1063/1.5090222
   * E. Caldeweyher, J.-M. Mewes, S. Ehlert and S. Grimme, Phys. Chem. Chem. Phys.
     2020, 22, 8499-8512. DOI: 10.1039/D0CP00502A
   
   for sTDA-xTB:
   * S. Grimme and C. Bannwarth, J. Chem. Phys., 2016, 145, 054103.
     DOI: 10.1063/1.4959605
   
   in the mass-spec context:
   * V. Asgeirsson, C. Bauer and S. Grimme, Chem. Sci., 2017, 8, 4879.
     DOI: 10.1039/c7sc00601b
   * J. Koopman and S. Grimme, ACS Omega 2019, 4, 12, 15120-15133.
     DOI: 10.1021/acsomega.9b02011
   
   for metadynamics refer to:
   * S. Grimme, J. Chem. Theory Comput., 2019, 155, 2847-2862
     DOI: 10.1021/acs.jctc.9b00143
   
   for SPH calculations refer to:
   * S. Spicher and S. Grimme, J. Chem. Theory Comput., 2021, 17, 1701-1714
     DOI: 10.1021/acs.jctc.0c01306
   
   for ONIOM refer to:
   * C. Plett, A. Katbashev, S. Ehlert, S. Grimme, M. Bursch,
     Phys. Chem. Chem. Phys., 2023, 25, 17860-17868. DOI: 10.1039/D3CP02178E
   
   for DIPRO refer to:
   * J. Kohn, N. Gildemeister, S. Grimme, D. Fazzi, A. Hansen,
     J. Chem. Phys. 159, 144106 (2023). DOI: 10.1063/5.0167484
   
   for PTB refer to:
   * S. Grimme, M. Mueller, A. Hansen, J. Chem. Phys., 2023, 158, 124111.
     DOI: 10.1063/5.0137838
   
   with help from (in alphabetical order)
   P. Atkinson, C. Bannwarth, F. Bohle, G. Brandenburg, E. Caldeweyher,
   M. Checinski, S. Dohm, S. Ehlert, S. Ehrlich, M. Friede, T. Froitzheim,
   I. Gerasimov, C. Hölzer, A. Katbashev, J. Kohn, J. Koopman, C. Lavigne,
   S. Lehtola, F. März, M. Müller, F. Musil, H. Neugebauer, J. Pisarek,
   C. Plett, P. Pracht, F. Pultar, J. Seibert, P. Shushkov, S. Spicher,
   M. Stahn, M. Steiner, T. Strunk, J. Stückrath, T. Rose, and J. Unsleber
   
 * started run on 2026/05/23 at 08:17:37.762     
   ID    Z sym.   atoms
    1    7 N      1, 5, 10, 17, 23, 28, 35
    2    6 C      2, 3, 6-8, 11-14, 16, 20, 21, 24-26, 29, 31-34, 36-40
    3    8 O      4, 9, 15, 18, 19, 22, 27, 30
    4    1 H      41-70

           -------------------------------------------------
          |                Calculation Setup                |
           -------------------------------------------------

          program call               : /home/xchen/software/xtb-6.7.1-gxtb/bin/xtb /home/xchen/Test/benchmark/md_sampled/01_6_0109_n1/snap_0147.xyz --charge -1 --gxtb --norestart
          coordinate file            : /home/xchen/Test/benchmark/md_sampled/01_6_0109_n1/snap_0147.xyz
          omp threads                :                    48

core increment energy         -1.7791297691186E+03 Eh
dispersion energy              1.0112229958264E-02 Eh
molecular charge              -1.0000000000000E+00 e
number of electrons            2.1399999999800E+02 e
number of unpaired electrons   0.0000000000000E+00 e
wavefunction                   restricted
integral cutoff                2.6907767250513E+01 bohr
energy convergence             1.0000000000000E-06 Eh
density convergence            2.0000000000000E-05 e

------------------------------------------------------------
  cycle        total energy    energy error   density error
------------------------------------------------------------
      1     -1954.964913457  -1.7584526E+02   0.0000000E+00
      2     -1955.298122821  -3.3320936E-01   2.5295855E-02
      3     -1955.510877207  -2.1275439E-01   1.9932706E-02
      4     -1955.958944071  -4.4806686E-01   1.5770968E-02
      5     -1955.966272285  -7.3282139E-03   1.1271959E-03
      6     -1955.966794256  -5.2197164E-04   2.0956999E-04
      7     -1955.966845958  -5.1701974E-05   7.1755572E-05
      8     -1955.966849883  -3.9249949E-06   1.9866259E-05
      9     -1955.966850440  -5.5657554E-07   4.7043180E-06
------------------------------------------------------------

electronic energy             -1.7684719355134E+02 Eh
total energy                  -1.9559668504400E+03 Eh

Post processing:
 | Mayer-Wiberg bond orders
 | Molecular Multipole Moments

 total:                                  13.258 sec
 - increment                              0.000 sec (  0%)
 - repulsion                              0.010 sec (  0%)
 - dispersion                             0.307 sec (  2%)
 - coulomb                                0.128 sec (  0%)
 - exchange                               0.015 sec (  0%)
 - hamiltonian                            0.523 sec (  3%)
 - acp                                    0.222 sec (  1%)
 - spin polarization                      0.000 sec (  0%)
 - post processing                        0.088 sec (  0%)
 - scc                                   10.848 sec ( 81%)
 - coulomb gradient                       0.198 sec (  1%)
 - dispersion gradient                    0.030 sec (  0%)
 - exchange gradient                      0.073 sec (  0%)
 - repulsion gradient                     0.004 sec (  0%)
 - acp gradient                           0.329 sec (  2%)
 - hamiltonian gradient                   0.566 sec (  4%)
 - gradient                               1.199 sec (  9%)

         :::::::::::::::::::::::::::::::::::::::::::::::::::::
         ::                     SUMMARY                     ::
         :::::::::::::::::::::::::::::::::::::::::::::::::::::
         :: total energy           -1955.966850439983 Eh    ::
         :: gradient norm              0.375927388457 Eh/a0 ::
         :: HOMO-LUMO gap              6.113994244759 eV    ::
         ::.................................................::
         :: add. restraining           0.000000000000 Eh    ::
         :: total charge              -1.000000000000 e     ::
         :::::::::::::::::::::::::::::::::::::::::::::::::::::

           -------------------------------------------------
          |                Property Printout                |
           -------------------------------------------------

    * Orbital Energies and Occupations
------------------------------------------------------------------
      #    Occupation            Energy/Eh            Energy/eV
------------------------------------------------------------------
      1        2.0000           -1.2769961             -34.7488
    ...           ...                  ...                  ...
     95        2.0000           -0.3003023              -8.1716
     96        2.0000           -0.2990785              -8.1383
     97        2.0000           -0.2956342              -8.0446
     98        2.0000           -0.2949081              -8.0249
     99        2.0000           -0.2937840              -7.9943
    100        2.0000           -0.2908307              -7.9139
    101        2.0000           -0.2890207              -7.8647
    102        2.0000           -0.2761580              -7.5146
    103        2.0000           -0.2741195              -7.4592
    104        2.0000           -0.2633502              -7.1661
    105        2.0000           -0.2003260              -5.4511
    106        2.0000           -0.1854973              -5.0476
    107        2.0000           -0.1686286              -4.5886 (HOMO)
    108                          0.0560566               1.5254 (LUMO)
    109                          0.0724709               1.9720
    110                          0.0854745               2.3259
    111                          0.0925695               2.5189
    112                          0.1006717               2.7394
    113                          0.1041924               2.8352
    114                          0.1046212               2.8469
    115                          0.1164799               3.1696
    116                          0.1434373               3.9031
    117                          0.2322453               6.3197
    118                          0.2406071               6.5473
    ...                                ...                  ...
    190                          0.9789593              26.6388
------------------------------------------------------------------
               HL-Gap            0.2246851 Eh            6.1140 eV
------------------------------------------------------------------

Atomic charges and shell populations (in atomic units):
------------------------------------------------------
     #    Z                q          p(s)       p(p)
------------------------------------------------------
     1    7 N      -0.406764      1.446207   3.960557
     2    6 C      -0.079604      1.135461   2.944143
     3    6 C       0.395701      1.108638   2.495661
     4    8 O      -0.541467      1.852617   4.688850
     5    7 N      -0.377556      1.362501   4.015056
     6    6 C       0.047652      1.111303   2.841045
     7    6 C       0.418224      1.131275   2.450501
     8    6 C       0.001375      1.131750   2.866875
     9    8 O      -0.513718      1.852725   4.660993
    10    7 N      -0.350237      1.366220   3.984016
    11    6 C      -0.148816      1.148434   3.000382
    12    6 C       0.391839      1.097596   2.510565
    13    6 C      -0.265524      1.168980   3.096544
    14    6 C      -0.078590      1.129300   2.949289
    15    8 O      -0.535421      1.862337   4.673084
    16    6 C       0.514672      1.075560   2.409768
    17    7 N      -0.348417      1.364299   3.984118
    18    8 O      -0.679723      1.854904   4.824819
    19    8 O      -0.683250      1.855365   4.827886
    20    6 C       0.407161      1.103845   2.488993
    21    6 C      -0.022989      1.121580   2.901409
    22    8 O      -0.519908      1.853171   4.666736
    23    7 N      -0.345073      1.360986   3.984087
    24    6 C      -0.240717      1.163551   3.077166
    25    6 C       0.420743      1.096109   2.483148
    26    6 C      -0.068297      1.130152   2.938145
    27    8 O      -0.519555      1.850377   4.669178
    28    7 N      -0.341299      1.350928   3.990370
    29    6 C       0.413016      1.108691   2.478293
    30    8 O      -0.553637      1.852051   4.701586
    31    6 C      -0.141874      1.109303   3.032571
    32    6 C      -0.055226      1.104209   2.951017
    33    6 C      -0.021852      1.151558   2.870294
    34    6 C      -0.052540      1.122169   2.930371
    35    7 N      -0.267685      1.348011   3.919675
    36    6 C       0.055795      1.103481   2.840724
    37    6 C      -0.085192      1.164506   2.920686
    38    6 C      -0.128896      1.147447   2.981450
    39    6 C      -0.124453      1.134979   2.989474
    40    6 C      -0.086066      1.135526   2.950540
    41    1 H       0.273069      0.726931
    42    1 H       0.136361      0.863639
    43    1 H       0.131817      0.868183
    44    1 H       0.277157      0.722843
    45    1 H       0.113552      0.886448
    46    1 H       0.131146      0.868854
    47    1 H       0.277556      0.722444
    48    1 H       0.101757      0.898243
    49    1 H       0.154088      0.845912
    50    1 H       0.077683      0.922317
    51    1 H       0.105575      0.894425
    52    1 H       0.129315      0.870685
    53    1 H       0.117269      0.882731
    54    1 H       0.286557      0.713443
    55    1 H       0.134596      0.865404
    56    1 H       0.247096      0.752904
    57    1 H       0.092310      0.907690
    58    1 H       0.121075      0.878925
    59    1 H       0.099896      0.900104
    60    1 H       0.111209      0.888791
    61    1 H       0.148573      0.851427
    62    1 H       0.288233      0.711767
    63    1 H       0.103152      0.896848
    64    1 H       0.119900      0.880100
    65    1 H       0.115814      0.884186
    66    1 H       0.254223      0.745777
    67    1 H       0.095975      0.904025
    68    1 H       0.103593      0.896407
    69    1 H       0.097820      0.902180
    70    1 H       0.071798      0.928202
------------------------------------------------------


Wiberg/Mayer (AO) data.
largest (>0.10) Wiberg bond orders for each atom

 ---------------------------------------------------------------------------
     #   Z sym  total        # sym  WBO       # sym  WBO       # sym  WBO
 ---------------------------------------------------------------------------
     1   7 N    3.167 --     7 C    1.062     2 C    0.996    41 O    0.872
                             9 C    0.123
     2   6 C    3.928 --     1 N    0.996     3 C    0.950    43 O    0.943
                            42 O    0.935
     3   6 C    3.872 --     4 C    1.654     5 N    1.199     2 C    0.950
     4   8 C    1.932 --     3 C    1.654     5 N    0.165
     5   7 N    3.309 --     3 C    1.199     6 C    0.963    44 O    0.883
                             4 C    0.165
     6   6 C    3.934 --    31 C    1.008     5 N    0.963    45 O    0.923
                            29 C    0.902
     7   6 C    3.827 --     9 C    1.735     1 N    1.062     8 C    0.940
     8   6 C    3.918 --    11 C    0.965    10 N    0.945     7 C    0.940
                            46 O    0.935
     9   8 C    2.002 --     7 C    1.735     1 N    0.123
    10   7 N    3.337 --    12 C    1.243     8 C    0.945    47 O    0.882
                            15 C    0.174
    11   6 C    3.941 --    13 C    1.004     8 C    0.965    48 O    0.958
                            49 O    0.927
    12   6 C    3.890 --    15 C    1.629    10 N    1.243    14 C    0.971
    13   6 C    3.946 --    11 C    1.004    51 O    0.959    50 O    0.953
                            16 C    0.873
    14   6 C    3.928 --    17 N    0.979    12 C    0.971    53 O    0.942
                            52 O    0.941
    15   8 C    1.912 --    12 C    1.629    10 N    0.174
    16   6 C    3.870 --    18 C    1.492    19 C    1.484    13 C    0.873
    17   7 N    3.310 --    20 C    1.212    14 C    0.979    54 O    0.883
                            22 C    0.163
    18   8 C    1.775 --    16 C    1.492    19 C    0.200
    19   8 C    1.765 --    16 C    1.484    18 C    0.200
    20   6 C    3.866 --    22 C    1.683    17 N    1.212    21 C    0.889
    21   6 C    3.934 --    24 C    1.013    23 N    0.975    55 O    0.928
                            20 C    0.889
    22   8 C    1.973 --    20 C    1.683    17 N    0.163
    23   7 N    3.325 --    25 C    1.190    21 C    0.975    56 O    0.901
                            27 C    0.165
    24   6 C    3.953 --    21 C    1.013    57 O    0.971    59 O    0.966
                            58 O    0.963
    25   6 C    3.869 --    27 C    1.681    23 N    1.190    26 C    0.931
    26   6 C    3.928 --    28 N    0.997    60 O    0.951    61 O    0.936
                            25 C    0.931
    27   8 C    1.977 --    25 C    1.681    23 N    0.165
    28   7 N    3.323 --    29 C    1.224    26 C    0.997    62 O    0.875
                            30 C    0.156
    29   6 C    3.865 --    30 C    1.653    28 N    1.224     6 C    0.902
    30   8 C    1.922 --    29 C    1.653    28 N    0.156
    31   6 C    3.964 --    32 C    1.012     6 C    1.008    64 O    0.939
                            63 O    0.937
    32   6 C    3.966 --    33 C    1.614    34 C    1.175    31 C    1.012
    33   6 C    3.908 --    32 C    1.614    35 N    1.152    65 O    0.951
    34   6 C    3.971 --    36 C    1.321    37 C    1.272    32 C    1.175
    35   7 N    3.432 --    36 C    1.155    33 C    1.152    66 O    0.905
    36   6 C    3.942 --    34 C    1.321    38 C    1.274    35 N    1.155
    37   6 C    3.962 --    39 C    1.511    34 C    1.272    67 O    0.948
                            38 C    0.145
    38   6 C    3.960 --    40 C    1.513    36 C    1.274    68 O    0.956
                            37 C    0.145
    39   6 C    3.971 --    37 C    1.511    40 C    1.379    69 O    0.954
    40   6 C    3.974 --    38 C    1.513    39 C    1.379    70 O    0.951
    41   1 O    0.925 --     1 N    0.872
    42   1 O    0.981 --     2 C    0.935
    43   1 O    0.983 --     2 C    0.943
    44   1 O    0.923 --     5 N    0.883
    45   1 O    0.987 --     6 C    0.923
    46   1 O    0.983 --     8 C    0.935
    47   1 O    0.923 --    10 N    0.882
    48   1 O    0.990 --    11 C    0.958
    49   1 O    0.976 --    11 C    0.927
    50   1 O    0.994 --    13 C    0.953
    51   1 O    0.989 --    13 C    0.959
    52   1 O    0.983 --    14 C    0.941
    53   1 O    0.986 --    14 C    0.942
    54   1 O    0.918 --    17 N    0.883
    55   1 O    0.982 --    21 C    0.928
    56   1 O    0.939 --    23 N    0.901
    57   1 O    0.991 --    24 C    0.971
    58   1 O    0.985 --    24 C    0.963
    59   1 O    0.990 --    24 C    0.966
    60   1 O    0.988 --    26 C    0.951
    61   1 O    0.978 --    26 C    0.936
    62   1 O    0.917 --    28 N    0.875
    63   1 O    0.989 --    31 C    0.937
    64   1 O    0.986 --    31 C    0.939
    65   1 O    0.987 --    33 C    0.951
    66   1 O    0.935 --    35 N    0.905
    67   1 O    0.991 --    37 C    0.948
    68   1 O    0.989 --    38 C    0.956
    69   1 O    0.990 --    39 C    0.954
    70   1 O    0.995 --    40 C    0.951
 ---------------------------------------------------------------------------

Topologies differ in total number of bonds
Writing topology from bond orders to xtbtopo.mol

Atomic dipole moments (in atomic units):
---------------------------------------------------------
     #    Z                 x            y            z
---------------------------------------------------------
           total     4.487357     9.594952     6.844929
---------------------------------------------------------
         |total|    12.611603    32.055496 Debye


           -------------------------------------------------
          | TOTAL ENERGY            -1955.966850439983 Eh   |
          | GRADIENT NORM               0.375927388457 Eh/α |
           -------------------------------------------------

------------------------------------------------------------------------
 * finished run on 2026/05/23 at 08:17:51.780     
------------------------------------------------------------------------
 total:
 * wall-time:     0 d,  0 h,  0 min, 14.017 sec
 *  cpu-time:     0 d,  0 h,  0 min, 22.566 sec
 * ratio c/w:     1.610 speedup
 SCF:
 * wall-time:     0 d,  0 h,  0 min, 13.574 sec
 *  cpu-time:     0 d,  0 h,  0 min, 22.225 sec
 * ratio c/w:     1.637 speedup

normal termination of xtb
