      -----------------------------------------------------------      
     |                   =====================                   |     
     |                           x T B                           |     
     |                   =====================                   |     
     |                         S. Grimme                         |     
     |          Mulliken Center for Theoretical Chemistry        |     
     |                    University of Bonn                     |     
      -----------------------------------------------------------      

   * xtb version 6.7.1 (26dd68d) compiled by 'froitzheim@fs7' on 2026-05-14

   xtb is free software: you can redistribute it and/or modify it under
   the terms of the GNU Lesser General Public License as published by
   the Free Software Foundation, either version 3 of the License, or
   (at your option) any later version.
   
   xtb is distributed in the hope that it will be useful,
   but WITHOUT ANY WARRANTY; without even the implied warranty of
   MERCHANTABILITY or FITNESS FOR A PARTICULAR PURPOSE.  See the
   GNU Lesser General Public License for more details.
   
   Cite this work as:
   * C. Bannwarth, E. Caldeweyher, S. Ehlert, A. Hansen, P. Pracht,
     J. Seibert, S. Spicher, S. Grimme, WIREs Comput. Mol. Sci., 2020, 11,
     e01493. DOI: 10.1002/wcms.1493
   
   for g-xTB:
   * T. Froitzheim, M. Müller, A. Hansen, S. Grimme, ChemRxiv, 2025, preprint.
     DOI: 10.26434/chemrxiv-2025-bjxv
   for GFN2-xTB:
   * C. Bannwarth, S. Ehlert and S. Grimme., J. Chem. Theory Comput., 2019,
     15, 1652-1671. DOI: 10.1021/acs.jctc.8b01176
   for GFN1-xTB:
   * S. Grimme, C. Bannwarth, P. Shushkov, J. Chem. Theory Comput., 2017,
     13, 1989-2009. DOI: 10.1021/acs.jctc.7b00118
   for GFN0-xTB:
   * P. Pracht, E. Caldeweyher, S. Ehlert, S. Grimme, ChemRxiv, 2019, preprint.
     DOI: 10.26434/chemrxiv.8326202.v1
   for GFN-FF:
   * S. Spicher and S. Grimme, Angew. Chem. Int. Ed., 2020, 59, 15665-15673.
     DOI: 10.1002/anie.202004239
   
   for ALPB and GBSA implicit solvation:
   * S. Ehlert, M. Stahn, S. Spicher, S. Grimme, J. Chem. Theory Comput.,
     2021, 17, 4250-4261. DOI: 10.1021/acs.jctc.1c00471
   
   for ddCOSMO and CPCM-X implicit solvation:
   * M. Stahn, S. Ehlert, S. Grimme, J. Phys. Chem. A,
     2023, XX, XXXX-XXXX. DOI: 10.1021/acs.jpca.3c04382
   
   for DFT-D4:
   * E. Caldeweyher, C. Bannwarth and S. Grimme, J. Chem. Phys., 2017,
     147, 034112. DOI: 10.1063/1.4993215
   * E. Caldeweyher, S. Ehlert, A. Hansen, H. Neugebauer, S. Spicher,
     C. Bannwarth and S. Grimme, J. Chem. Phys., 2019, 150, 154122.
     DOI: 10.1063/1.5090222
   * E. Caldeweyher, J.-M. Mewes, S. Ehlert and S. Grimme, Phys. Chem. Chem. Phys.
     2020, 22, 8499-8512. DOI: 10.1039/D0CP00502A
   
   for sTDA-xTB:
   * S. Grimme and C. Bannwarth, J. Chem. Phys., 2016, 145, 054103.
     DOI: 10.1063/1.4959605
   
   in the mass-spec context:
   * V. Asgeirsson, C. Bauer and S. Grimme, Chem. Sci., 2017, 8, 4879.
     DOI: 10.1039/c7sc00601b
   * J. Koopman and S. Grimme, ACS Omega 2019, 4, 12, 15120-15133.
     DOI: 10.1021/acsomega.9b02011
   
   for metadynamics refer to:
   * S. Grimme, J. Chem. Theory Comput., 2019, 155, 2847-2862
     DOI: 10.1021/acs.jctc.9b00143
   
   for SPH calculations refer to:
   * S. Spicher and S. Grimme, J. Chem. Theory Comput., 2021, 17, 1701-1714
     DOI: 10.1021/acs.jctc.0c01306
   
   for ONIOM refer to:
   * C. Plett, A. Katbashev, S. Ehlert, S. Grimme, M. Bursch,
     Phys. Chem. Chem. Phys., 2023, 25, 17860-17868. DOI: 10.1039/D3CP02178E
   
   for DIPRO refer to:
   * J. Kohn, N. Gildemeister, S. Grimme, D. Fazzi, A. Hansen,
     J. Chem. Phys. 159, 144106 (2023). DOI: 10.1063/5.0167484
   
   for PTB refer to:
   * S. Grimme, M. Mueller, A. Hansen, J. Chem. Phys., 2023, 158, 124111.
     DOI: 10.1063/5.0137838
   
   with help from (in alphabetical order)
   P. Atkinson, C. Bannwarth, F. Bohle, G. Brandenburg, E. Caldeweyher,
   M. Checinski, S. Dohm, S. Ehlert, S. Ehrlich, M. Friede, T. Froitzheim,
   I. Gerasimov, C. Hölzer, A. Katbashev, J. Kohn, J. Koopman, C. Lavigne,
   S. Lehtola, F. März, M. Müller, F. Musil, H. Neugebauer, J. Pisarek,
   C. Plett, P. Pracht, F. Pultar, J. Seibert, P. Shushkov, S. Spicher,
   M. Stahn, M. Steiner, T. Strunk, J. Stückrath, T. Rose, and J. Unsleber
   
 * started run on 2026/05/23 at 08:20:37.828     
   ID    Z sym.   atoms
    1    7 N      1, 5, 10, 16, 18, 21, 27, 34, 42, 50
    2    6 C      2, 3, 6-8, 11-14, 17, 19, 20, 22-25, 28-31, 35-38, 40, 43,
                  44, 46-48
    3    8 O      4, 9, 15, 26, 32, 39, 41, 49
    4   16 S      33, 45
    5    1 H      51-96

           -------------------------------------------------
          |                Calculation Setup                |
           -------------------------------------------------

          program call               : /home/xchen/software/xtb-6.7.1-gxtb/bin/xtb /home/xchen/Test/benchmark/md_sampled/02_6_0901_0/snap_0188.xyz --charge 0 --gxtb --norestart
          coordinate file            : /home/xchen/Test/benchmark/md_sampled/02_6_0901_0/snap_0188.xyz
          omp threads                :                    48

core increment energy         -2.8923536237342E+03 Eh
dispersion energy              2.2180663383816E-02 Eh
molecular charge               0.0000000000000E+00 e
number of electrons            2.7599999999751E+02 e
number of unpaired electrons   0.0000000000000E+00 e
wavefunction                   restricted
integral cutoff                2.6907767250513E+01 bohr
energy convergence             1.0000000000000E-06 Eh
density convergence            2.0000000000000E-05 e

------------------------------------------------------------
  cycle        total energy    energy error   density error
------------------------------------------------------------
      1     -3115.405214676  -2.2307377E+02   0.0000000E+00
      2     -3115.829343191  -4.2412852E-01   2.0259535E-02
      3     -3116.094760817  -2.6541763E-01   1.5881965E-02
      4     -3116.643966772  -5.4920595E-01   1.2528932E-02
      5     -3116.653702430  -9.7356583E-03   8.9483992E-04
      6     -3116.654385368  -6.8293744E-04   1.4820989E-04
      7     -3116.654440915  -5.5547271E-05   5.4283228E-05
      8     -3116.654446725  -5.8097762E-06   1.2356664E-05
      9     -3116.654447572  -8.4679064E-07   4.5272114E-06
------------------------------------------------------------

electronic energy             -2.2432300450091E+02 Eh
total energy                  -3.1166544475717E+03 Eh

Post processing:
 | Mayer-Wiberg bond orders
 | Molecular Multipole Moments

 total:                                  17.564 sec
 - increment                              0.000 sec (  0%)
 - repulsion                              0.013 sec (  0%)
 - dispersion                             0.453 sec (  2%)
 - coulomb                                0.160 sec (  0%)
 - exchange                               0.009 sec (  0%)
 - hamiltonian                           10.557 sec ( 60%)
 - acp                                    0.233 sec (  1%)
 - spin polarization                      0.000 sec (  0%)
 - post processing                        0.070 sec (  0%)
 - scc                                    5.590 sec ( 31%)
 - coulomb gradient                       0.045 sec (  0%)
 - dispersion gradient                    0.036 sec (  0%)
 - exchange gradient                      0.085 sec (  0%)
 - repulsion gradient                     0.007 sec (  0%)
 - acp gradient                           0.135 sec (  0%)
 - hamiltonian gradient                   0.233 sec (  1%)
 - gradient                               0.541 sec (  3%)

         :::::::::::::::::::::::::::::::::::::::::::::::::::::
         ::                     SUMMARY                     ::
         :::::::::::::::::::::::::::::::::::::::::::::::::::::
         :: total energy           -3116.654447571729 Eh    ::
         :: gradient norm              0.379576613826 Eh/a0 ::
         :: HOMO-LUMO gap              9.002338882239 eV    ::
         ::.................................................::
         :: add. restraining           0.000000000000 Eh    ::
         :: total charge              -0.000000000000 e     ::
         :::::::::::::::::::::::::::::::::::::::::::::::::::::

           -------------------------------------------------
          |                Property Printout                |
           -------------------------------------------------

    * Orbital Energies and Occupations
------------------------------------------------------------------
      #    Occupation            Energy/Eh            Energy/eV
------------------------------------------------------------------
      1        2.0000           -1.3563449             -36.9080
    ...           ...                  ...                  ...
    126        2.0000           -0.3858617             -10.4998
    127        2.0000           -0.3804228             -10.3518
    128        2.0000           -0.3747224             -10.1967
    129        2.0000           -0.3716488             -10.1131
    130        2.0000           -0.3672832              -9.9943
    131        2.0000           -0.3650659              -9.9339
    132        2.0000           -0.3590102              -9.7692
    133        2.0000           -0.3568888              -9.7114
    134        2.0000           -0.3535916              -9.6217
    135        2.0000           -0.3451391              -9.3917
    136        2.0000           -0.3427191              -9.3259
    137        2.0000           -0.3390473              -9.2259
    138        2.0000           -0.3343103              -9.0970 (HOMO)
    139                         -0.0034805              -0.0947 (LUMO)
    140                          0.0023965               0.0652
    141                          0.0054181               0.1474
    142                          0.0064716               0.1761
    143                          0.0081732               0.2224
    144                          0.0180361               0.4908
    145                          0.0215574               0.5866
    146                          0.0228618               0.6221
    147                          0.0285581               0.7771
    148                          0.0310666               0.8454
    149                          0.0362160               0.9855
    ...                                ...                  ...
    256                          0.7412352              20.1700
------------------------------------------------------------------
               HL-Gap            0.3308299 Eh            9.0023 eV
------------------------------------------------------------------

Atomic charges and shell populations (in atomic units):
-----------------------------------------------------------------
     #    Z                q          p(s)       p(p)       p(d)
-----------------------------------------------------------------
     1    7 N      -0.350003      1.381434   3.968569
     2    6 C      -0.004649      1.118287   2.886362
     3    6 C       0.403467      1.103847   2.492686
     4    8 O      -0.540145      1.857608   4.682537
     5    7 N      -0.318069      1.356054   3.962016
     6    6 C      -0.022044      1.102684   2.919360
     7    6 C       0.402541      1.104685   2.492774
     8    6 C       0.003575      1.136586   2.859839
     9    8 O      -0.515730      1.855160   4.660570
    10    7 N      -0.343365      1.422848   3.920516
    11    6 C      -0.154095      1.153895   3.000200
    12    6 C       0.410533      1.107124   2.482343
    13    6 C       0.074265      1.115382   2.810353
    14    6 C       0.000285      1.148749   2.850965
    15    8 O      -0.509586      1.864250   4.645336
    16    7 N      -0.377277      1.559752   3.817525
    17    6 C      -0.098180      1.167771   2.930409
    18    7 N      -0.266747      1.339609   3.927138
    19    6 C      -0.171203      1.177751   2.993452
    20    6 C       0.053217      1.118425   2.828358
    21    7 N      -0.203569      1.361967   3.841602
    22    6 C      -0.053562      1.127410   2.926152
    23    6 C       0.421038      1.110118   2.468844
    24    6 C      -0.195378      1.146738   3.048640
    25    6 C       0.000825      1.127178   2.871997
    26    8 O      -0.508578      1.859105   4.649473
    27    7 N      -0.372165      1.373490   3.998675
    28    6 C      -0.159945      1.156671   3.003275
    29    6 C       0.420053      1.094902   2.485045
    30    6 C      -0.115976      1.178423   2.937553
    31    6 C      -0.020502      1.128310   2.892192
    32    8 O      -0.499789      1.848849   4.650941
    33   16 S      -0.235030      1.880917   4.283654   0.070459
    34    7 N      -0.320199      1.393981   3.926218
    35    6 C      -0.144109      1.133457   3.010652
    36    6 C      -0.206520      1.182500   3.024020
    37    6 C       0.410539      1.107712   2.481748
    38    6 C      -0.203856      1.152949   3.050907
    39    8 O      -0.565792      1.851061   4.714732
    40    6 C       0.396916      1.107499   2.495585
    41    8 O      -0.505976      1.856355   4.649621
    42    7 N      -0.404624      1.432781   3.971843
    43    6 C      -0.159052      1.161269   2.997783
    44    6 C      -0.140010      1.158648   2.981362
    45   16 S      -0.202138      1.884567   4.240942   0.076629
    46    6 C      -0.190469      1.190377   3.000092
    47    6 C      -0.183327      1.149340   3.033987
    48    6 C       0.390900      1.102585   2.506515
    49    8 O      -0.513920      1.855463   4.658457
    50    7 N      -0.416228      1.394031   4.022197
    51    1 H       0.287839      0.712161
    52    1 H       0.141251      0.858749
    53    1 H       0.253857      0.746143
    54    1 H       0.162612      0.837388
    55    1 H       0.114966      0.885034
    56    1 H       0.276540      0.723460
    57    1 H       0.123079      0.876921
    58    1 H       0.131948      0.868052
    59    1 H       0.136251      0.863749
    60    1 H       0.133538      0.866462
    61    1 H       0.125814      0.874186
    62    1 H       0.112240      0.887760
    63    1 H       0.130832      0.869168
    64    1 H       0.267414      0.732586
    65    1 H       0.108037      0.891963
    66    1 H       0.073061      0.926939
    67    1 H       0.104142      0.895858
    68    1 H       0.108485      0.891515
    69    1 H       0.141204      0.858796
    70    1 H       0.288341      0.711659
    71    1 H       0.105972      0.894028
    72    1 H       0.078559      0.921441
    73    1 H       0.095168      0.904832
    74    1 H       0.109000      0.891000
    75    1 H       0.147382      0.852618
    76    1 H       0.292213      0.707787
    77    1 H       0.100965      0.899035
    78    1 H       0.120038      0.879962
    79    1 H       0.115806      0.884194
    80    1 H       0.114325      0.885675
    81    1 H       0.123232      0.876768
    82    1 H       0.134571      0.865429
    83    1 H       0.097416      0.902584
    84    1 H       0.244998      0.755002
    85    1 H       0.242936      0.757064
    86    1 H       0.100769      0.899231
    87    1 H       0.091696      0.908304
    88    1 H       0.136244      0.863756
    89    1 H       0.113589      0.886411
    90    1 H       0.102553      0.897447
    91    1 H       0.092637      0.907363
    92    1 H       0.091034      0.908966
    93    1 H       0.078301      0.921699
    94    1 H       0.149771      0.850229
    95    1 H       0.265983      0.734017
    96    1 H       0.237043      0.762957
-----------------------------------------------------------------


Wiberg/Mayer (AO) data.
largest (>0.10) Wiberg bond orders for each atom

 ---------------------------------------------------------------------------
     #   Z sym  total        # sym  WBO       # sym  WBO       # sym  WBO
 ---------------------------------------------------------------------------
     1   7 N    3.288 --     7 C    1.194     2 C    0.998    51 N    0.830
                             9 C    0.151
     2   6 C    3.937 --     1 N    0.998    43 C    0.968    52 N    0.931
                             3 C    0.916
     3   6 C    3.870 --     4 C    1.627     5 N    1.242     2 C    0.916
     4   8 C    1.928 --     3 C    1.627     5 N    0.162
     5   7 N    3.350 --     3 C    1.242     6 C    0.961    53 N    0.894
                             4 C    0.162
     6   6 C    3.935 --    47 C    1.020     5 N    0.961    54 N    0.922
                            37 C    0.888
     7   6 C    3.877 --     9 C    1.686     1 N    1.194     8 C    0.928
     8   6 C    3.928 --    10 N    0.976    11 C    0.956    55 N    0.945
                             7 C    0.928
     9   8 C    1.951 --     7 C    1.686     1 N    0.151
    10   7 N    3.243 --    12 C    1.162     8 C    0.976    56 N    0.872
                            15 C    0.141
    11   6 C    3.952 --    13 C    1.009     8 C    0.956    58 N    0.955
                            57 N    0.945
    12   6 C    3.875 --    15 C    1.672    10 N    1.162    14 C    0.959
    13   6 C    3.954 --    17 C    1.486    16 N    1.331    11 C    1.009
    14   6 C    3.916 --    12 C    0.959    18 N    0.946    19 C    0.941
                            59 N    0.937
    15   8 C    1.949 --    12 C    1.672    10 N    0.141
    16   7 N    3.039 --    20 C    1.432    13 C    1.331
    17   6 C    3.847 --    13 C    1.486    21 N    1.170    60 N    0.948
                            20 C    0.148
    18   7 N    3.368 --    23 C    1.179    22 C    0.964    14 C    0.946
                            26 C    0.146
    19   6 C    3.948 --    24 C    1.003    62 N    0.961    61 N    0.960
                            14 C    0.941
    20   6 C    3.920 --    16 N    1.432    21 N    1.331    63 N    0.946
                            17 C    0.148
    21   7 N    3.552 --    20 C    1.331    17 C    1.170    64 N    0.896
    22   6 C    3.931 --    24 C    1.009    18 N    0.964    65 N    0.948
                            66 N    0.942
    23   6 C    3.864 --    26 C    1.694    18 N    1.179    25 C    0.906
    24   6 C    3.965 --    22 C    1.009    19 C    1.003    68 N    0.959
                            67 N    0.955
    25   6 C    3.933 --    28 C    0.988    27 N    0.972    69 N    0.920
                            23 C    0.906
    26   8 C    1.965 --    23 C    1.694    18 N    0.146
    27   7 N    3.287 --    29 C    1.177    25 C    0.972    70 N    0.862
                            32 C    0.163
    28   6 C    3.964 --    30 C    1.018    25 C    0.988    71 N    0.949
                            72 N    0.947
    29   6 C    3.876 --    32 C    1.709    27 N    1.177    31 C    0.920
    30   6 C    3.937 --    28 C    1.018    33 O    0.969    74 N    0.956
                            73 N    0.946
    31   6 C    3.921 --    35 C    1.004    75 N    0.937    34 N    0.921
                            29 C    0.920
    32   8 C    1.992 --    29 C    1.709    27 N    0.163
    33  16 O    2.075 --    36 C    1.001    30 C    0.969
    34   7 N    3.350 --    37 C    1.298    31 C    0.921    76 N    0.868
                            39 C    0.171
    35   6 C    3.959 --    38 C    1.006    31 C    1.004    78 N    0.949
                            77 N    0.944
    36   6 C    3.921 --    33 O    1.001    79 N    0.970    80 N    0.963
                            81 N    0.952
    37   6 C    3.872 --    39 C    1.602    34 N    1.298     6 C    0.888
    38   6 C    3.964 --    35 C    1.006    83 N    0.949    82 N    0.946
                            40 C    0.940
    39   8 C    1.937 --    37 C    1.602    34 N    0.171
    40   6 C    3.873 --    41 C    1.715    42 N    1.183    38 C    0.940
    41   8 C    1.971 --    40 C    1.715    42 N    0.150
    42   7 N    3.193 --    40 C    1.183    84 N    0.911    85 N    0.909
                            41 C    0.150
    43   6 C    3.961 --    44 C    1.014     2 C    0.968    87 N    0.957
                            86 N    0.955
    44   6 C    3.939 --    43 C    1.014    45 O    0.994    89 N    0.953
                            88 N    0.940
    45  16 O    2.091 --    46 C    0.999    44 C    0.994
    46   6 C    3.936 --    45 O    0.999    92 N    0.974    91 N    0.972
                            90 N    0.968
    47   6 C    3.962 --     6 C    1.020    93 N    0.950    48 C    0.948
                            94 N    0.926
    48   6 C    3.881 --    49 C    1.689    50 N    1.209    47 C    0.948
    49   8 C    1.956 --    48 C    1.689    50 N    0.159
    50   7 N    3.228 --    48 C    1.209    96 N    0.918    95 N    0.905
                            49 C    0.159
    51   1 N    0.917 --     1 N    0.830
    52   1 N    0.980 --     2 C    0.931
    53   1 N    0.936 --     5 N    0.894
    54   1 N    0.974 --     6 C    0.922
    55   1 N    0.987 --     8 C    0.945
    56   1 N    0.924 --    10 N    0.872
    57   1 N    0.985 --    11 C    0.945
    58   1 N    0.983 --    11 C    0.955
    59   1 N    0.981 --    14 C    0.937
    60   1 N    0.982 --    17 C    0.948
    61   1 N    0.984 --    19 C    0.960
    62   1 N    0.987 --    19 C    0.961
    63   1 N    0.983 --    20 C    0.946
    64   1 N    0.928 --    21 N    0.896
    65   1 N    0.988 --    22 C    0.948
    66   1 N    0.995 --    22 C    0.942
    67   1 N    0.989 --    24 C    0.955
    68   1 N    0.988 --    24 C    0.959
    69   1 N    0.980 --    25 C    0.920
    70   1 N    0.917 --    27 N    0.862
    71   1 N    0.989 --    28 C    0.949
    72   1 N    0.994 --    28 C    0.947
    73   1 N    0.991 --    30 C    0.946
    74   1 N    0.988 --    30 C    0.956
    75   1 N    0.978 --    31 C    0.937
    76   1 N    0.915 --    34 N    0.868
    77   1 N    0.990 --    35 C    0.944
    78   1 N    0.986 --    35 C    0.949
    79   1 N    0.987 --    36 C    0.970
    80   1 N    0.987 --    36 C    0.963
    81   1 N    0.985 --    36 C    0.952
    82   1 N    0.982 --    38 C    0.946
    83   1 N    0.991 --    38 C    0.949
    84   1 N    0.940 --    42 N    0.911
    85   1 N    0.941 --    42 N    0.909
    86   1 N    0.990 --    43 C    0.955
    87   1 N    0.992 --    43 C    0.957
    88   1 N    0.981 --    44 C    0.940
    89   1 N    0.987 --    44 C    0.953
    90   1 N    0.989 --    46 C    0.968
    91   1 N    0.991 --    46 C    0.972
    92   1 N    0.992 --    46 C    0.974
    93   1 N    0.994 --    47 C    0.950
    94   1 N    0.978 --    47 C    0.926
    95   1 N    0.929 --    50 N    0.905
    96   1 N    0.944 --    50 N    0.918
 ---------------------------------------------------------------------------

Topologies differ in total number of bonds
Writing topology from bond orders to xtbtopo.mol

Atomic dipole moments (in atomic units):
---------------------------------------------------------
     #    Z                 x            y            z
---------------------------------------------------------
           total     2.592437    -4.317053    -3.195298
---------------------------------------------------------
         |total|     5.963858    15.158615 Debye


           -------------------------------------------------
          | TOTAL ENERGY            -3116.654447571729 Eh   |
          | GRADIENT NORM               0.379576613826 Eh/α |
           -------------------------------------------------

------------------------------------------------------------------------
 * finished run on 2026/05/23 at 08:20:56.701     
------------------------------------------------------------------------
 total:
 * wall-time:     0 d,  0 h,  0 min, 18.872 sec
 *  cpu-time:     0 d,  0 h,  1 min, 20.519 sec
 * ratio c/w:     4.266 speedup
 SCF:
 * wall-time:     0 d,  0 h,  0 min, 18.137 sec
 *  cpu-time:     0 d,  0 h,  1 min, 19.556 sec
 * ratio c/w:     4.386 speedup

normal termination of xtb
