      -----------------------------------------------------------      
     |                   =====================                   |     
     |                           x T B                           |     
     |                   =====================                   |     
     |                         S. Grimme                         |     
     |          Mulliken Center for Theoretical Chemistry        |     
     |                    University of Bonn                     |     
      -----------------------------------------------------------      

   * xtb version 6.7.1 (26dd68d) compiled by 'froitzheim@fs7' on 2026-05-14

   xtb is free software: you can redistribute it and/or modify it under
   the terms of the GNU Lesser General Public License as published by
   the Free Software Foundation, either version 3 of the License, or
   (at your option) any later version.
   
   xtb is distributed in the hope that it will be useful,
   but WITHOUT ANY WARRANTY; without even the implied warranty of
   MERCHANTABILITY or FITNESS FOR A PARTICULAR PURPOSE.  See the
   GNU Lesser General Public License for more details.
   
   Cite this work as:
   * C. Bannwarth, E. Caldeweyher, S. Ehlert, A. Hansen, P. Pracht,
     J. Seibert, S. Spicher, S. Grimme, WIREs Comput. Mol. Sci., 2020, 11,
     e01493. DOI: 10.1002/wcms.1493
   
   for g-xTB:
   * T. Froitzheim, M. Müller, A. Hansen, S. Grimme, ChemRxiv, 2025, preprint.
     DOI: 10.26434/chemrxiv-2025-bjxv
   for GFN2-xTB:
   * C. Bannwarth, S. Ehlert and S. Grimme., J. Chem. Theory Comput., 2019,
     15, 1652-1671. DOI: 10.1021/acs.jctc.8b01176
   for GFN1-xTB:
   * S. Grimme, C. Bannwarth, P. Shushkov, J. Chem. Theory Comput., 2017,
     13, 1989-2009. DOI: 10.1021/acs.jctc.7b00118
   for GFN0-xTB:
   * P. Pracht, E. Caldeweyher, S. Ehlert, S. Grimme, ChemRxiv, 2019, preprint.
     DOI: 10.26434/chemrxiv.8326202.v1
   for GFN-FF:
   * S. Spicher and S. Grimme, Angew. Chem. Int. Ed., 2020, 59, 15665-15673.
     DOI: 10.1002/anie.202004239
   
   for ALPB and GBSA implicit solvation:
   * S. Ehlert, M. Stahn, S. Spicher, S. Grimme, J. Chem. Theory Comput.,
     2021, 17, 4250-4261. DOI: 10.1021/acs.jctc.1c00471
   
   for ddCOSMO and CPCM-X implicit solvation:
   * M. Stahn, S. Ehlert, S. Grimme, J. Phys. Chem. A,
     2023, XX, XXXX-XXXX. DOI: 10.1021/acs.jpca.3c04382
   
   for DFT-D4:
   * E. Caldeweyher, C. Bannwarth and S. Grimme, J. Chem. Phys., 2017,
     147, 034112. DOI: 10.1063/1.4993215
   * E. Caldeweyher, S. Ehlert, A. Hansen, H. Neugebauer, S. Spicher,
     C. Bannwarth and S. Grimme, J. Chem. Phys., 2019, 150, 154122.
     DOI: 10.1063/1.5090222
   * E. Caldeweyher, J.-M. Mewes, S. Ehlert and S. Grimme, Phys. Chem. Chem. Phys.
     2020, 22, 8499-8512. DOI: 10.1039/D0CP00502A
   
   for sTDA-xTB:
   * S. Grimme and C. Bannwarth, J. Chem. Phys., 2016, 145, 054103.
     DOI: 10.1063/1.4959605
   
   in the mass-spec context:
   * V. Asgeirsson, C. Bauer and S. Grimme, Chem. Sci., 2017, 8, 4879.
     DOI: 10.1039/c7sc00601b
   * J. Koopman and S. Grimme, ACS Omega 2019, 4, 12, 15120-15133.
     DOI: 10.1021/acsomega.9b02011
   
   for metadynamics refer to:
   * S. Grimme, J. Chem. Theory Comput., 2019, 155, 2847-2862
     DOI: 10.1021/acs.jctc.9b00143
   
   for SPH calculations refer to:
   * S. Spicher and S. Grimme, J. Chem. Theory Comput., 2021, 17, 1701-1714
     DOI: 10.1021/acs.jctc.0c01306
   
   for ONIOM refer to:
   * C. Plett, A. Katbashev, S. Ehlert, S. Grimme, M. Bursch,
     Phys. Chem. Chem. Phys., 2023, 25, 17860-17868. DOI: 10.1039/D3CP02178E
   
   for DIPRO refer to:
   * J. Kohn, N. Gildemeister, S. Grimme, D. Fazzi, A. Hansen,
     J. Chem. Phys. 159, 144106 (2023). DOI: 10.1063/5.0167484
   
   for PTB refer to:
   * S. Grimme, M. Mueller, A. Hansen, J. Chem. Phys., 2023, 158, 124111.
     DOI: 10.1063/5.0137838
   
   with help from (in alphabetical order)
   P. Atkinson, C. Bannwarth, F. Bohle, G. Brandenburg, E. Caldeweyher,
   M. Checinski, S. Dohm, S. Ehlert, S. Ehrlich, M. Friede, T. Froitzheim,
   I. Gerasimov, C. Hölzer, A. Katbashev, J. Kohn, J. Koopman, C. Lavigne,
   S. Lehtola, F. März, M. Müller, F. Musil, H. Neugebauer, J. Pisarek,
   C. Plett, P. Pracht, F. Pultar, J. Seibert, P. Shushkov, S. Spicher,
   M. Stahn, M. Steiner, T. Strunk, J. Stückrath, T. Rose, and J. Unsleber
   
 * started run on 2026/05/23 at 08:14:32.586     
   ID    Z sym.   atoms
    1    7 N      1, 5, 10, 17, 23, 28, 35
    2    6 C      2, 3, 6-8, 11-14, 16, 20, 21, 24-26, 29, 31-34, 36-40
    3    8 O      4, 9, 15, 18, 19, 22, 27, 30
    4    1 H      41-70

           -------------------------------------------------
          |                Calculation Setup                |
           -------------------------------------------------

          program call               : /home/xchen/software/xtb-6.7.1-gxtb/bin/xtb /home/xchen/Test/benchmark/md_sampled/01_6_0109_n1/snap_0049.xyz --charge -1 --gxtb --norestart
          coordinate file            : /home/xchen/Test/benchmark/md_sampled/01_6_0109_n1/snap_0049.xyz
          omp threads                :                    48

core increment energy         -1.7791297691186E+03 Eh
dispersion energy              9.9514487230845E-03 Eh
molecular charge              -1.0000000000000E+00 e
number of electrons            2.1399999999800E+02 e
number of unpaired electrons   0.0000000000000E+00 e
wavefunction                   restricted
integral cutoff                2.6907767250513E+01 bohr
energy convergence             1.0000000000000E-06 Eh
density convergence            2.0000000000000E-05 e

------------------------------------------------------------
  cycle        total energy    energy error   density error
------------------------------------------------------------
      1     -1954.975524440  -1.7585571E+02   0.0000000E+00
      2     -1955.314607283  -3.3908284E-01   2.5704629E-02
      3     -1955.528995619  -2.1438834E-01   2.0236714E-02
      4     -1955.977485432  -4.4848981E-01   1.6003263E-02
      5     -1955.985378705  -7.8932732E-03   1.1983130E-03
      6     -1955.985924846  -5.4614087E-04   2.1344607E-04
      7     -1955.985978593  -5.3746901E-05   7.1623815E-05
      8     -1955.985982752  -4.1596053E-06   2.0599561E-05
      9     -1955.985983362  -6.0930597E-07   5.1354991E-06
------------------------------------------------------------

electronic energy             -1.7686616569193E+02 Eh
total energy                  -1.9559859833618E+03 Eh

Post processing:
 | Mayer-Wiberg bond orders
 | Molecular Multipole Moments

 total:                                  13.867 sec
 - increment                              0.000 sec (  0%)
 - repulsion                              0.011 sec (  0%)
 - dispersion                             0.224 sec (  1%)
 - coulomb                                0.111 sec (  0%)
 - exchange                               0.008 sec (  0%)
 - hamiltonian                            0.317 sec (  2%)
 - acp                                    0.235 sec (  1%)
 - spin polarization                      0.000 sec (  0%)
 - post processing                        0.081 sec (  0%)
 - scc                                   11.995 sec ( 86%)
 - coulomb gradient                       0.044 sec (  0%)
 - dispersion gradient                    0.040 sec (  0%)
 - exchange gradient                      0.156 sec (  1%)
 - repulsion gradient                     0.031 sec (  0%)
 - acp gradient                           0.342 sec (  2%)
 - hamiltonian gradient                   0.348 sec (  2%)
 - gradient                               0.961 sec (  6%)

         :::::::::::::::::::::::::::::::::::::::::::::::::::::
         ::                     SUMMARY                     ::
         :::::::::::::::::::::::::::::::::::::::::::::::::::::
         :: total energy           -1955.985983361803 Eh    ::
         :: gradient norm              0.310246272827 Eh/a0 ::
         :: HOMO-LUMO gap              5.856414937901 eV    ::
         ::.................................................::
         :: add. restraining           0.000000000000 Eh    ::
         :: total charge              -1.000000000000 e     ::
         :::::::::::::::::::::::::::::::::::::::::::::::::::::

           -------------------------------------------------
          |                Property Printout                |
           -------------------------------------------------

    * Orbital Energies and Occupations
------------------------------------------------------------------
      #    Occupation            Energy/Eh            Energy/eV
------------------------------------------------------------------
      1        2.0000           -1.2704305             -34.5702
    ...           ...                  ...                  ...
     95        2.0000           -0.3004673              -8.1761
     96        2.0000           -0.2984771              -8.1220
     97        2.0000           -0.2972925              -8.0897
     98        2.0000           -0.2952179              -8.0333
     99        2.0000           -0.2929202              -7.9708
    100        2.0000           -0.2917444              -7.9388
    101        2.0000           -0.2833358              -7.7100
    102        2.0000           -0.2778208              -7.5599
    103        2.0000           -0.2732744              -7.4362
    104        2.0000           -0.2607946              -7.0966
    105        2.0000           -0.1840862              -5.0092
    106        2.0000           -0.1699122              -4.6235
    107        2.0000           -0.1578169              -4.2944 (HOMO)
    108                          0.0574024               1.5620 (LUMO)
    109                          0.0775274               2.1096
    110                          0.0789043               2.1471
    111                          0.0812304               2.2104
    112                          0.0888767               2.4185
    113                          0.0955750               2.6007
    114                          0.1103117               3.0017
    115                          0.1132936               3.0829
    116                          0.1206819               3.2839
    117                          0.2274549               6.1894
    118                          0.2326419               6.3305
    ...                                ...                  ...
    190                          0.9534370              25.9443
------------------------------------------------------------------
               HL-Gap            0.2152193 Eh            5.8564 eV
------------------------------------------------------------------

Atomic charges and shell populations (in atomic units):
------------------------------------------------------
     #    Z                q          p(s)       p(p)
------------------------------------------------------
     1    7 N      -0.342894      1.377913   3.964981
     2    6 C      -0.083623      1.131636   2.951987
     3    6 C       0.416695      1.097556   2.485749
     4    8 O      -0.526754      1.850693   4.676061
     5    7 N      -0.341771      1.357602   3.984168
     6    6 C       0.005109      1.116811   2.878081
     7    6 C       0.421112      1.120229   2.458659
     8    6 C      -0.015982      1.146760   2.869222
     9    8 O      -0.515691      1.855222   4.660469
    10    7 N      -0.324008      1.381380   3.942628
    11    6 C      -0.126267      1.158359   2.967908
    12    6 C       0.399787      1.098721   2.501491
    13    6 C      -0.199341      1.160992   3.038349
    14    6 C      -0.073052      1.134565   2.938487
    15    8 O      -0.560117      1.862136   4.697981
    16    6 C       0.502349      1.086417   2.411234
    17    7 N      -0.328446      1.367165   3.961281
    18    8 O      -0.703194      1.864005   4.839189
    19    8 O      -0.680133      1.856942   4.823190
    20    6 C       0.405836      1.099280   2.494884
    21    6 C      -0.009082      1.101668   2.907414
    22    8 O      -0.550718      1.850146   4.700572
    23    7 N      -0.289226      1.342159   3.947066
    24    6 C      -0.282234      1.159389   3.122845
    25    6 C       0.388733      1.098541   2.512726
    26    6 C      -0.069892      1.126437   2.943455
    27    8 O      -0.570724      1.858995   4.711729
    28    7 N      -0.356697      1.386925   3.969772
    29    6 C       0.425033      1.112823   2.462144
    30    8 O      -0.513349      1.856045   4.657305
    31    6 C      -0.155098      1.136611   3.018487
    32    6 C      -0.091913      1.139669   2.952244
    33    6 C      -0.008189      1.155024   2.853164
    34    6 C      -0.032378      1.126481   2.905897
    35    7 N      -0.286122      1.369072   3.917050
    36    6 C       0.074972      1.125529   2.799499
    37    6 C      -0.097775      1.154567   2.943208
    38    6 C      -0.107196      1.147671   2.959525
    39    6 C      -0.136598      1.149111   2.987487
    40    6 C      -0.125104      1.141346   2.983758
    41    1 H       0.250620      0.749380
    42    1 H       0.138518      0.861482
    43    1 H       0.108907      0.891093
    44    1 H       0.263933      0.736067
    45    1 H       0.119568      0.880432
    46    1 H       0.131313      0.868687
    47    1 H       0.269440      0.730560
    48    1 H       0.093474      0.906526
    49    1 H       0.119439      0.880561
    50    1 H       0.081164      0.918836
    51    1 H       0.074303      0.925697
    52    1 H       0.133187      0.866813
    53    1 H       0.136875      0.863125
    54    1 H       0.277765      0.722235
    55    1 H       0.137513      0.862487
    56    1 H       0.264601      0.735399
    57    1 H       0.104070      0.895930
    58    1 H       0.117295      0.882705
    59    1 H       0.103488      0.896512
    60    1 H       0.116696      0.883304
    61    1 H       0.114112      0.885888
    62    1 H       0.291272      0.708728
    63    1 H       0.105915      0.894085
    64    1 H       0.127560      0.872440
    65    1 H       0.129739      0.870261
    66    1 H       0.254655      0.745345
    67    1 H       0.087188      0.912812
    68    1 H       0.095489      0.904511
    69    1 H       0.102722      0.897278
    70    1 H       0.113126      0.886874
------------------------------------------------------


Wiberg/Mayer (AO) data.
largest (>0.10) Wiberg bond orders for each atom

 ---------------------------------------------------------------------------
     #   Z sym  total        # sym  WBO       # sym  WBO       # sym  WBO
 ---------------------------------------------------------------------------
     1   7 N    3.251 --     7 C    1.136     2 C    0.983    41 O    0.905
                             9 C    0.147
     2   6 C    3.934 --     1 N    0.983    43 O    0.960    42 O    0.948
                             3 C    0.938
     3   6 C    3.869 --     4 C    1.653     5 N    1.211     2 C    0.938
     4   8 C    1.957 --     3 C    1.653     5 N    0.166
     5   7 N    3.326 --     3 C    1.211     6 C    0.967    44 O    0.900
                             4 C    0.166
     6   6 C    3.936 --     5 N    0.967    31 C    0.964    45 O    0.944
                            29 C    0.923
     7   6 C    3.846 --     9 C    1.713     1 N    1.136     8 C    0.927
     8   6 C    3.904 --    10 N    0.954    11 C    0.942    46 O    0.941
                             7 C    0.927
     9   8 C    1.977 --     7 C    1.713     1 N    0.147
    10   7 N    3.348 --    12 C    1.248     8 C    0.954    47 O    0.888
                            15 C    0.171
    11   6 C    3.944 --    13 C    1.022    48 O    0.959    49 O    0.945
                             8 C    0.942
    12   6 C    3.891 --    15 C    1.606    10 N    1.248    14 C    0.981
    13   6 C    3.956 --    11 C    1.022    51 O    0.962    50 O    0.957
                            16 C    0.885
    14   6 C    3.912 --    12 C    0.981    53 O    0.952    52 O    0.944
                            17 N    0.939
    15   8 C    1.890 --    12 C    1.606    10 N    0.171
    16   6 C    3.867 --    19 C    1.502    18 C    1.456    13 C    0.885
    17   7 N    3.358 --    20 C    1.278    14 C    0.939    54 O    0.885
                            22 C    0.178
    18   8 C    1.728 --    16 C    1.456    19 C    0.199
    19   8 C    1.777 --    16 C    1.502    18 C    0.199
    20   6 C    3.878 --    22 C    1.637    17 N    1.278    21 C    0.886
    21   6 C    3.935 --    24 C    1.014    23 N    0.973    55 O    0.936
                            20 C    0.886
    22   8 C    1.931 --    20 C    1.637    17 N    0.178
    23   7 N    3.394 --    25 C    1.286    21 C    0.973    56 O    0.890
                            27 C    0.160
    24   6 C    3.953 --    21 C    1.014    57 O    0.969    59 O    0.967
                            58 O    0.965
    25   6 C    3.881 --    27 C    1.591    23 N    1.286    26 C    0.933
    26   6 C    3.943 --    28 N    1.016    61 O    0.946    60 O    0.945
                            25 C    0.933
    27   8 C    1.880 --    25 C    1.591    23 N    0.160
    28   7 N    3.261 --    29 C    1.144    26 C    1.016    62 O    0.857
                            30 C    0.150
    29   6 C    3.860 --    30 C    1.705    28 N    1.144     6 C    0.923
    30   8 C    1.972 --    29 C    1.705    28 N    0.150
    31   6 C    3.959 --    32 C    1.010     6 C    0.964    63 O    0.951
                            64 O    0.950
    32   6 C    3.941 --    33 C    1.665    34 C    1.094    31 C    1.010
    33   6 C    3.921 --    32 C    1.665    35 N    1.149    65 O    0.947
    34   6 C    3.972 --    37 C    1.417    36 C    1.264    32 C    1.094
    35   7 N    3.364 --    33 C    1.149    36 C    1.092    66 O    0.901
    36   6 C    3.938 --    38 C    1.380    34 C    1.264    35 N    1.092
                            39 C    0.104
    37   6 C    3.967 --    34 C    1.417    39 C    1.416    67 O    0.952
                            38 C    0.114
    38   6 C    3.959 --    40 C    1.441    36 C    1.380    68 O    0.953
                            37 C    0.114
    39   6 C    3.966 --    40 C    1.430    37 C    1.416    69 O    0.958
                            36 C    0.104
    40   6 C    3.970 --    38 C    1.441    39 C    1.430    70 O    0.953
    41   1 O    0.937 --     1 N    0.905
    42   1 O    0.981 --     2 C    0.948
    43   1 O    0.988 --     2 C    0.960
    44   1 O    0.930 --     5 N    0.900
    45   1 O    0.986 --     6 C    0.944
    46   1 O    0.983 --     8 C    0.941
    47   1 O    0.927 --    10 N    0.888
    48   1 O    0.991 --    11 C    0.959
    49   1 O    0.986 --    11 C    0.945
    50   1 O    0.993 --    13 C    0.957
    51   1 O    0.994 --    13 C    0.962
    52   1 O    0.982 --    14 C    0.944
    53   1 O    0.981 --    14 C    0.952
    54   1 O    0.923 --    17 N    0.885
    55   1 O    0.981 --    21 C    0.936
    56   1 O    0.930 --    23 N    0.890
    57   1 O    0.989 --    24 C    0.969
    58   1 O    0.986 --    24 C    0.965
    59   1 O    0.989 --    24 C    0.967
    60   1 O    0.986 --    26 C    0.945
    61   1 O    0.987 --    26 C    0.946
    62   1 O    0.915 --    28 N    0.857
    63   1 O    0.989 --    31 C    0.951
    64   1 O    0.984 --    31 C    0.950
    65   1 O    0.983 --    33 C    0.947
    66   1 O    0.935 --    35 N    0.901
    67   1 O    0.992 --    37 C    0.952
    68   1 O    0.991 --    38 C    0.953
    69   1 O    0.989 --    39 C    0.958
    70   1 O    0.987 --    40 C    0.953
 ---------------------------------------------------------------------------

Topologies differ in total number of bonds
Writing topology from bond orders to xtbtopo.mol

Atomic dipole moments (in atomic units):
---------------------------------------------------------
     #    Z                 x            y            z
---------------------------------------------------------
           total     4.944985    10.581792     9.290047
---------------------------------------------------------
         |total|    14.924215    37.933570 Debye


           -------------------------------------------------
          | TOTAL ENERGY            -1955.985983361803 Eh   |
          | GRADIENT NORM               0.310246272827 Eh/α |
           -------------------------------------------------

------------------------------------------------------------------------
 * finished run on 2026/05/23 at 08:14:47.256     
------------------------------------------------------------------------
 total:
 * wall-time:     0 d,  0 h,  0 min, 14.669 sec
 *  cpu-time:     0 d,  0 h,  0 min, 23.630 sec
 * ratio c/w:     1.611 speedup
 SCF:
 * wall-time:     0 d,  0 h,  0 min, 14.186 sec
 *  cpu-time:     0 d,  0 h,  0 min, 23.239 sec
 * ratio c/w:     1.638 speedup

normal termination of xtb
