      -----------------------------------------------------------      
     |                   =====================                   |     
     |                           x T B                           |     
     |                   =====================                   |     
     |                         S. Grimme                         |     
     |          Mulliken Center for Theoretical Chemistry        |     
     |                    University of Bonn                     |     
      -----------------------------------------------------------      

   * xtb version 6.7.1 (26dd68d) compiled by 'froitzheim@fs7' on 2026-05-14

   xtb is free software: you can redistribute it and/or modify it under
   the terms of the GNU Lesser General Public License as published by
   the Free Software Foundation, either version 3 of the License, or
   (at your option) any later version.
   
   xtb is distributed in the hope that it will be useful,
   but WITHOUT ANY WARRANTY; without even the implied warranty of
   MERCHANTABILITY or FITNESS FOR A PARTICULAR PURPOSE.  See the
   GNU Lesser General Public License for more details.
   
   Cite this work as:
   * C. Bannwarth, E. Caldeweyher, S. Ehlert, A. Hansen, P. Pracht,
     J. Seibert, S. Spicher, S. Grimme, WIREs Comput. Mol. Sci., 2020, 11,
     e01493. DOI: 10.1002/wcms.1493
   
   for g-xTB:
   * T. Froitzheim, M. Müller, A. Hansen, S. Grimme, ChemRxiv, 2025, preprint.
     DOI: 10.26434/chemrxiv-2025-bjxv
   for GFN2-xTB:
   * C. Bannwarth, S. Ehlert and S. Grimme., J. Chem. Theory Comput., 2019,
     15, 1652-1671. DOI: 10.1021/acs.jctc.8b01176
   for GFN1-xTB:
   * S. Grimme, C. Bannwarth, P. Shushkov, J. Chem. Theory Comput., 2017,
     13, 1989-2009. DOI: 10.1021/acs.jctc.7b00118
   for GFN0-xTB:
   * P. Pracht, E. Caldeweyher, S. Ehlert, S. Grimme, ChemRxiv, 2019, preprint.
     DOI: 10.26434/chemrxiv.8326202.v1
   for GFN-FF:
   * S. Spicher and S. Grimme, Angew. Chem. Int. Ed., 2020, 59, 15665-15673.
     DOI: 10.1002/anie.202004239
   
   for ALPB and GBSA implicit solvation:
   * S. Ehlert, M. Stahn, S. Spicher, S. Grimme, J. Chem. Theory Comput.,
     2021, 17, 4250-4261. DOI: 10.1021/acs.jctc.1c00471
   
   for ddCOSMO and CPCM-X implicit solvation:
   * M. Stahn, S. Ehlert, S. Grimme, J. Phys. Chem. A,
     2023, XX, XXXX-XXXX. DOI: 10.1021/acs.jpca.3c04382
   
   for DFT-D4:
   * E. Caldeweyher, C. Bannwarth and S. Grimme, J. Chem. Phys., 2017,
     147, 034112. DOI: 10.1063/1.4993215
   * E. Caldeweyher, S. Ehlert, A. Hansen, H. Neugebauer, S. Spicher,
     C. Bannwarth and S. Grimme, J. Chem. Phys., 2019, 150, 154122.
     DOI: 10.1063/1.5090222
   * E. Caldeweyher, J.-M. Mewes, S. Ehlert and S. Grimme, Phys. Chem. Chem. Phys.
     2020, 22, 8499-8512. DOI: 10.1039/D0CP00502A
   
   for sTDA-xTB:
   * S. Grimme and C. Bannwarth, J. Chem. Phys., 2016, 145, 054103.
     DOI: 10.1063/1.4959605
   
   in the mass-spec context:
   * V. Asgeirsson, C. Bauer and S. Grimme, Chem. Sci., 2017, 8, 4879.
     DOI: 10.1039/c7sc00601b
   * J. Koopman and S. Grimme, ACS Omega 2019, 4, 12, 15120-15133.
     DOI: 10.1021/acsomega.9b02011
   
   for metadynamics refer to:
   * S. Grimme, J. Chem. Theory Comput., 2019, 155, 2847-2862
     DOI: 10.1021/acs.jctc.9b00143
   
   for SPH calculations refer to:
   * S. Spicher and S. Grimme, J. Chem. Theory Comput., 2021, 17, 1701-1714
     DOI: 10.1021/acs.jctc.0c01306
   
   for ONIOM refer to:
   * C. Plett, A. Katbashev, S. Ehlert, S. Grimme, M. Bursch,
     Phys. Chem. Chem. Phys., 2023, 25, 17860-17868. DOI: 10.1039/D3CP02178E
   
   for DIPRO refer to:
   * J. Kohn, N. Gildemeister, S. Grimme, D. Fazzi, A. Hansen,
     J. Chem. Phys. 159, 144106 (2023). DOI: 10.1063/5.0167484
   
   for PTB refer to:
   * S. Grimme, M. Mueller, A. Hansen, J. Chem. Phys., 2023, 158, 124111.
     DOI: 10.1063/5.0137838
   
   with help from (in alphabetical order)
   P. Atkinson, C. Bannwarth, F. Bohle, G. Brandenburg, E. Caldeweyher,
   M. Checinski, S. Dohm, S. Ehlert, S. Ehrlich, M. Friede, T. Froitzheim,
   I. Gerasimov, C. Hölzer, A. Katbashev, J. Kohn, J. Koopman, C. Lavigne,
   S. Lehtola, F. März, M. Müller, F. Musil, H. Neugebauer, J. Pisarek,
   C. Plett, P. Pracht, F. Pultar, J. Seibert, P. Shushkov, S. Spicher,
   M. Stahn, M. Steiner, T. Strunk, J. Stückrath, T. Rose, and J. Unsleber
   
 * started run on 2026/05/23 at 12:53:51.977     
   ID    Z sym.   atoms
    1    7 N      1, 5, 10, 17, 23, 25, 28, 34, 41, 46, 50
    2    6 C      2, 3, 6-8, 11-15, 18-21, 24, 26, 27, 29-32, 35-38, 40,
                  42-45, 48, 49, 51-53
    3    8 O      4, 9, 16, 22, 33, 39, 47
    4    1 H      54-110

           -------------------------------------------------
          |                Calculation Setup                |
           -------------------------------------------------

          program call               : /home/xchen/software/xtb-6.7.1-gxtb/bin/xtb /home/xchen/Test/benchmark/md_sampled/07_7_0083_0/snap_0151.xyz --charge 0 --gxtb --norestart
          coordinate file            : /home/xchen/Test/benchmark/md_sampled/07_7_0083_0/snap_0151.xyz
          omp threads                :                    48

core increment energy         -2.2595336125909E+03 Eh
dispersion energy              2.5967948960770E-02 Eh
molecular charge               0.0000000000000E+00 e
number of electrons            2.9399999999735E+02 e
number of unpaired electrons   0.0000000000000E+00 e
wavefunction                   restricted
integral cutoff                2.6907767250513E+01 bohr
energy convergence             1.0000000000000E-06 Eh
density convergence            2.0000000000000E-05 e

------------------------------------------------------------
  cycle        total energy    energy error   density error
------------------------------------------------------------
      1     -2495.644545880  -2.3613690E+02   0.0000000E+00
      2     -2496.044838332  -4.0029245E-01   1.9020813E-02
      3     -2496.294130758  -2.4929243E-01   1.5107497E-02
      4     -2496.805011020  -5.1088026E-01   1.2039929E-02
      5     -2496.816189048  -1.1178028E-02   9.3380571E-04
      6     -2496.816909802  -7.2075363E-04   1.8914688E-04
      7     -2496.816991762  -8.1960575E-05   6.1021674E-05
      8     -2496.816997268  -5.5050141E-06   1.5848350E-05
      9     -2496.816998058  -7.9039029E-07   4.2978477E-06
------------------------------------------------------------

electronic energy             -2.3730935341596E+02 Eh
total energy                  -2.4968169980579E+03 Eh

Post processing:
 | Mayer-Wiberg bond orders
 | Molecular Multipole Moments

 total:                                  20.220 sec
 - increment                              0.000 sec (  0%)
 - repulsion                              0.010 sec (  0%)
 - dispersion                             0.391 sec (  1%)
 - coulomb                                0.228 sec (  1%)
 - exchange                               0.003 sec (  0%)
 - hamiltonian                           10.428 sec ( 51%)
 - acp                                    0.196 sec (  0%)
 - spin polarization                      0.000 sec (  0%)
 - post processing                        0.141 sec (  0%)
 - scc                                    8.016 sec ( 39%)
 - coulomb gradient                       0.068 sec (  0%)
 - dispersion gradient                    0.030 sec (  0%)
 - exchange gradient                      0.107 sec (  0%)
 - repulsion gradient                     0.006 sec (  0%)
 - acp gradient                           0.311 sec (  1%)
 - hamiltonian gradient                   0.416 sec (  2%)
 - gradient                               0.939 sec (  4%)

         :::::::::::::::::::::::::::::::::::::::::::::::::::::
         ::                     SUMMARY                     ::
         :::::::::::::::::::::::::::::::::::::::::::::::::::::
         :: total energy           -2496.816998057902 Eh    ::
         :: gradient norm              0.433715743693 Eh/a0 ::
         :: HOMO-LUMO gap              9.337661528079 eV    ::
         ::.................................................::
         :: add. restraining           0.000000000000 Eh    ::
         :: total charge              -0.000000000000 e     ::
         :::::::::::::::::::::::::::::::::::::::::::::::::::::

           -------------------------------------------------
          |                Property Printout                |
           -------------------------------------------------

    * Orbital Energies and Occupations
------------------------------------------------------------------
      #    Occupation            Energy/Eh            Energy/eV
------------------------------------------------------------------
      1        2.0000           -1.3459435             -36.6250
    ...           ...                  ...                  ...
    135        2.0000           -0.3677029             -10.0057
    136        2.0000           -0.3629745              -9.8770
    137        2.0000           -0.3614559              -9.8357
    138        2.0000           -0.3603913              -9.8067
    139        2.0000           -0.3596917              -9.7877
    140        2.0000           -0.3563747              -9.6975
    141        2.0000           -0.3546912              -9.6516
    142        2.0000           -0.3480601              -9.4712
    143        2.0000           -0.3379014              -9.1948
    144        2.0000           -0.3353078              -9.1242
    145        2.0000           -0.3304655              -8.9924
    146        2.0000           -0.3284431              -8.9374
    147        2.0000           -0.3247126              -8.8359 (HOMO)
    148                          0.0184401               0.5018 (LUMO)
    149                          0.0232694               0.6332
    150                          0.0259671               0.7066
    151                          0.0322868               0.8786
    152                          0.0348958               0.9496
    153                          0.0455663               1.2399
    154                          0.0476926               1.2978
    155                          0.0493394               1.3426
    156                          0.1098483               2.9891
    157                          0.1466334               3.9901
    158                          0.1614477               4.3932
    ...                                ...                  ...
    269                          0.8238112              22.4170
------------------------------------------------------------------
               HL-Gap            0.3431527 Eh            9.3377 eV
------------------------------------------------------------------

Atomic charges and shell populations (in atomic units):
------------------------------------------------------
     #    Z                q          p(s)       p(p)
------------------------------------------------------
     1    7 N      -0.329927      1.342893   3.987034
     2    6 C      -0.066285      1.126530   2.939755
     3    6 C       0.415046      1.093284   2.491670
     4    8 O      -0.511973      1.850835   4.661138
     5    7 N      -0.316099      1.351044   3.965056
     6    6 C       0.018482      1.120805   2.860712
     7    6 C       0.411457      1.095147   2.493396
     8    6 C       0.008954      1.117990   2.873056
     9    8 O      -0.558550      1.853521   4.705029
    10    7 N      -0.307925      1.341041   3.966884
    11    6 C      -0.164797      1.154636   3.010160
    12    6 C      -0.048054      1.120078   2.927976
    13    6 C       0.432311      1.119710   2.447979
    14    6 C      -0.189527      1.159140   3.030386
    15    6 C       0.003205      1.112809   2.883986
    16    8 O      -0.490773      1.852489   4.638285
    17    7 N      -0.358870      1.417152   3.941718
    18    6 C      -0.163419      1.140762   3.022657
    19    6 C       0.424227      1.110392   2.465381
    20    6 C       0.033813      1.120475   2.845712
    21    6 C       0.027183      1.136792   2.836025
    22    8 O      -0.522723      1.859218   4.663505
    23    7 N      -0.328097      1.578988   3.749108
    24    6 C      -0.125744      1.150591   2.975153
    25    7 N      -0.232074      1.347453   3.884622
    26    6 C      -0.192377      1.157566   3.034811
    27    6 C       0.076843      1.125142   2.798015
    28    7 N      -0.237550      1.380444   3.857106
    29    6 C      -0.050495      1.127721   2.922774
    30    6 C       0.410886      1.100683   2.488432
    31    6 C      -0.188384      1.152162   3.036222
    32    6 C       0.006993      1.124983   2.868025
    33    8 O      -0.577598      1.860285   4.717313
    34    7 N      -0.318129      1.385905   3.932224
    35    6 C      -0.165165      1.199430   2.965735
    36    6 C       0.409540      1.107784   2.482676
    37    6 C      -0.173958      1.171061   3.002897
    38    6 C      -0.009794      1.126031   2.883762
    39    8 O      -0.567964      1.862861   4.705103
    40    6 C      -0.219858      1.145243   3.074616
    41    7 N      -0.357989      1.374963   3.983026
    42    6 C      -0.165346      1.163446   3.001900
    43    6 C      -0.080018      1.103725   2.976292
    44    6 C       0.422831      1.095094   2.482075
    45    6 C      -0.186642      1.141851   3.044791
    46    7 N      -0.523085      1.339252   4.183832
    47    8 O      -0.506017      1.852002   4.654015
    48    6 C      -0.219295      1.158063   3.061232
    49    6 C      -0.102751      1.162633   2.940118
    50    7 N      -0.506454      1.484237   4.022217
    51    6 C      -0.119970      1.146853   2.973117
    52    6 C      -0.225572      1.168129   3.057443
    53    6 C      -0.266227      1.179584   3.086643
    54    1 H       0.291138      0.708862
    55    1 H       0.138738      0.861262
    56    1 H       0.094656      0.905344
    57    1 H       0.250257      0.749743
    58    1 H       0.106059      0.893941
    59    1 H       0.134799      0.865201
    60    1 H       0.085752      0.914248
    61    1 H       0.118328      0.881672
    62    1 H       0.110096      0.889904
    63    1 H       0.090812      0.909188
    64    1 H       0.091885      0.908115
    65    1 H       0.111104      0.888896
    66    1 H       0.121232      0.878768
    67    1 H       0.307504      0.692496
    68    1 H       0.138215      0.861785
    69    1 H       0.148139      0.851861
    70    1 H       0.130521      0.869479
    71    1 H       0.113764      0.886236
    72    1 H       0.118214      0.881786
    73    1 H       0.111069      0.888931
    74    1 H       0.132192      0.867808
    75    1 H       0.267737      0.732263
    76    1 H       0.087591      0.912409
    77    1 H       0.128455      0.871545
    78    1 H       0.099329      0.900671
    79    1 H       0.111783      0.888217
    80    1 H       0.124337      0.875663
    81    1 H       0.289361      0.710639
    82    1 H       0.095086      0.904914
    83    1 H       0.121648      0.878352
    84    1 H       0.088611      0.911389
    85    1 H       0.061159      0.938841
    86    1 H       0.123875      0.876125
    87    1 H       0.096733      0.903267
    88    1 H       0.097408      0.902592
    89    1 H       0.263654      0.736346
    90    1 H       0.108334      0.891666
    91    1 H       0.110474      0.889526
    92    1 H       0.095324      0.904676
    93    1 H       0.108017      0.891983
    94    1 H       0.094912      0.905088
    95    1 H       0.111039      0.888961
    96    1 H       0.229984      0.770016
    97    1 H       0.230247      0.769753
    98    1 H       0.122694      0.877306
    99    1 H       0.098073      0.901927
   100    1 H       0.095412      0.904588
   101    1 H       0.074777      0.925223
   102    1 H       0.215738      0.784262
   103    1 H       0.224543      0.775457
   104    1 H       0.079996      0.920004
   105    1 H       0.097944      0.902056
   106    1 H       0.098615      0.901385
   107    1 H       0.080579      0.919421
   108    1 H       0.121918      0.878082
   109    1 H       0.085009      0.914991
   110    1 H       0.088833      0.911167
------------------------------------------------------


Wiberg/Mayer (AO) data.
largest (>0.10) Wiberg bond orders for each atom

 ---------------------------------------------------------------------------
     #   Z sym  total        # sym  WBO       # sym  WBO       # sym  WBO
 ---------------------------------------------------------------------------
     1   7 N    3.358 --     7 C    1.247     2 C    1.001    54 O    0.867
                             9 C    0.166
     2   6 C    3.931 --     1 N    1.001    56 O    0.945     3 C    0.943
                            55 O    0.929
     3   6 C    3.876 --     4 C    1.678     5 N    1.200     2 C    0.943
     4   8 C    1.973 --     3 C    1.678     5 N    0.152
     5   7 N    3.319 --     3 C    1.200     6 C    0.972    57 O    0.906
                             4 C    0.152
     6   6 C    3.941 --     5 N    0.972    51 C    0.963    58 O    0.937
                            44 C    0.923
     7   6 C    3.878 --     9 C    1.625     1 N    1.247     8 C    0.931
     8   6 C    3.934 --    11 C    0.985    10 N    0.958     7 C    0.931
                            59 O    0.926
     9   8 C    1.910 --     7 C    1.625     1 N    0.166
    10   7 N    3.299 --    13 C    1.079    12 C    0.992     8 C    0.958
                            16 C    0.136
    11   6 C    3.956 --    14 C    1.005     8 C    0.985    60 O    0.964
                            61 O    0.955
    12   6 C    3.927 --    10 N    0.992    14 C    0.983    63 O    0.952
                            62 O    0.951
    13   6 C    3.841 --    16 C    1.745    10 N    1.079    15 C    0.918
    14   6 C    3.960 --    11 C    1.005    12 C    0.983    64 O    0.966
                            65 O    0.965
    15   6 C    3.947 --    18 C    0.997    17 N    0.966    66 O    0.937
                            13 C    0.918
    16   8 C    2.010 --    13 C    1.745    10 N    0.136
    17   7 N    3.258 --    19 C    1.169    15 C    0.966    67 O    0.851
                            22 C    0.160
    18   6 C    3.947 --    15 C    0.997    20 C    0.982    68 O    0.944
                            69 O    0.932
    19   6 C    3.865 --    22 C    1.691    17 N    1.169    21 C    0.940
    20   6 C    3.959 --    24 C    1.570    23 N    1.273    18 C    0.982
    21   6 C    3.919 --    26 C    0.974    19 C    0.940    70 O    0.938
                            25 N    0.927
    22   8 C    1.962 --    19 C    1.691    17 N    0.160
    23   7 N    3.003 --    27 C    1.532    20 C    1.273
    24   6 C    3.865 --    20 C    1.570    28 N    1.135    71 O    0.942
                            27 C    0.124
    25   7 N    3.409 --    30 C    1.240    29 C    0.968    21 C    0.927
                            33 C    0.158
    26   6 C    3.957 --    31 C    1.010    21 C    0.974    73 O    0.961
                            72 O    0.956
    27   6 C    3.915 --    23 N    1.532    28 N    1.264    74 O    0.942
                            24 C    0.124
    28   7 N    3.475 --    27 C    1.264    24 C    1.135    75 O    0.893
    29   6 C    3.924 --    31 C    0.997    25 N    0.968    77 O    0.948
                            76 O    0.945
    30   6 C    3.878 --    33 C    1.585    25 N    1.240    32 C    0.964
    31   6 C    3.962 --    26 C    1.010    29 C    0.997    79 O    0.959
                            78 O    0.957
    32   6 C    3.928 --    34 N    0.966    30 C    0.964    35 C    0.951
                            80 O    0.930
    33   8 C    1.884 --    30 C    1.585    25 N    0.158
    34   7 N    3.347 --    36 C    1.249    32 C    0.966    81 O    0.869
                            39 C    0.162
    35   6 C    3.943 --    37 C    0.981    82 O    0.968    83 O    0.959
                            32 C    0.951
    36   6 C    3.878 --    39 C    1.604    34 N    1.249    38 C    0.947
    37   6 C    3.964 --    40 C    1.025    35 C    0.981    85 O    0.965
                            84 O    0.958
    38   6 C    3.933 --    42 C    0.973    41 N    0.950    36 C    0.947
                            86 O    0.942
    39   8 C    1.884 --    36 C    1.604    34 N    0.162
    40   6 C    3.966 --    37 C    1.025    43 C    0.966    87 O    0.956
                            88 O    0.945
    41   7 N    3.280 --    44 C    1.181    38 C    0.950    89 O    0.894
                            47 C    0.150
    42   6 C    3.954 --    45 C    1.005    38 C    0.973    90 O    0.957
                            91 O    0.954
    43   6 C    3.948 --    46 N    1.054    40 C    0.966    93 O    0.948
                            92 O    0.948
    44   6 C    3.873 --    47 C    1.700    41 N    1.181     6 C    0.923
    45   6 C    3.964 --    48 C    1.012    42 C    1.005    95 O    0.956
                            94 O    0.944
    46   7 N    2.980 --    43 C    1.054    97 O    0.925    96 O    0.924
    47   8 C    1.975 --    44 C    1.700    41 N    0.150
    48   6 C    3.958 --    45 C    1.012    49 C    0.978    99 O    0.958
                            98 O    0.955
    49   6 C    3.949 --    50 N    1.019    48 C    0.978   100 O    0.960
                           101 O    0.959
    50   7 N    2.940 --    49 C    1.019   102 O    0.933   103 O    0.933
    51   6 C    3.969 --    52 C    1.012    53 C    0.990     6 C    0.963
                           104 O    0.948
    52   6 C    3.953 --    51 C    1.012   107 O    0.975   105 O    0.968
                           106 O    0.967
    53   6 C    3.953 --    51 C    0.990   109 O    0.980   110 O    0.974
                           108 O    0.970
    54   1 O    0.915 --     1 N    0.867
    55   1 O    0.981 --     2 C    0.929
    56   1 O    0.991 --     2 C    0.945
    57   1 O    0.937 --     5 N    0.906
    58   1 O    0.989 --     6 C    0.937
    59   1 O    0.982 --     8 C    0.926
    60   1 O    0.993 --    11 C    0.964
    61   1 O    0.986 --    11 C    0.955
    62   1 O    0.988 --    12 C    0.951
    63   1 O    0.992 --    12 C    0.952
    64   1 O    0.992 --    14 C    0.966
    65   1 O    0.988 --    14 C    0.965
    66   1 O    0.985 --    15 C    0.937
    67   1 O    0.905 --    17 N    0.851
    68   1 O    0.981 --    18 C    0.944
    69   1 O    0.978 --    18 C    0.932
    70   1 O    0.983 --    21 C    0.938
    71   1 O    0.987 --    24 C    0.942
    72   1 O    0.986 --    26 C    0.956
    73   1 O    0.988 --    26 C    0.961
    74   1 O    0.983 --    27 C    0.942
    75   1 O    0.928 --    28 N    0.893
    76   1 O    0.992 --    29 C    0.945
    77   1 O    0.983 --    29 C    0.948
    78   1 O    0.990 --    31 C    0.957
    79   1 O    0.988 --    31 C    0.959
    80   1 O    0.985 --    32 C    0.930
    81   1 O    0.916 --    34 N    0.869
    82   1 O    0.991 --    35 C    0.968
    83   1 O    0.985 --    35 C    0.959
    84   1 O    0.992 --    37 C    0.958
    85   1 O    0.996 --    37 C    0.965
    86   1 O    0.985 --    38 C    0.942
    87   1 O    0.991 --    40 C    0.956
    88   1 O    0.991 --    40 C    0.945
    89   1 O    0.930 --    41 N    0.894
    90   1 O    0.988 --    42 C    0.957
    91   1 O    0.988 --    42 C    0.954
    92   1 O    0.991 --    43 C    0.948
    93   1 O    0.988 --    43 C    0.948
    94   1 O    0.991 --    45 C    0.944
    95   1 O    0.988 --    45 C    0.956
    96   1 O    0.947 --    46 N    0.924
    97   1 O    0.947 --    46 N    0.925
    98   1 O    0.985 --    48 C    0.955
    99   1 O    0.990 --    48 C    0.958
   100   1 O    0.991 --    49 C    0.960
   101   1 O    0.994 --    49 C    0.959
   102   1 O    0.953 --    50 N    0.933
   103   1 O    0.950 --    50 N    0.933
   104   1 O    0.994 --    51 C    0.948
   105   1 O    0.990 --    52 C    0.968
   106   1 O    0.990 --    52 C    0.967
   107   1 O    0.994 --    52 C    0.975
   108   1 O    0.985 --    53 C    0.970
   109   1 O    0.993 --    53 C    0.980
   110   1 O    0.992 --    53 C    0.974
 ---------------------------------------------------------------------------

Topologies differ in total number of bonds
Writing topology from bond orders to xtbtopo.mol

Atomic dipole moments (in atomic units):
---------------------------------------------------------
     #    Z                 x            y            z
---------------------------------------------------------
           total     0.043969    -2.832570     0.022497
---------------------------------------------------------
         |total|     2.833001     7.200770 Debye


           -------------------------------------------------
          | TOTAL ENERGY            -2496.816998057902 Eh   |
          | GRADIENT NORM               0.433715743693 Eh/α |
           -------------------------------------------------

------------------------------------------------------------------------
 * finished run on 2026/05/23 at 12:54:13.109     
------------------------------------------------------------------------
 total:
 * wall-time:     0 d,  0 h,  0 min, 21.130 sec
 *  cpu-time:     0 d,  0 h,  1 min,  7.932 sec
 * ratio c/w:     3.215 speedup
 SCF:
 * wall-time:     0 d,  0 h,  0 min, 20.584 sec
 *  cpu-time:     0 d,  0 h,  1 min,  7.227 sec
 * ratio c/w:     3.266 speedup

normal termination of xtb
