      -----------------------------------------------------------      
     |                   =====================                   |     
     |                           x T B                           |     
     |                   =====================                   |     
     |                         S. Grimme                         |     
     |          Mulliken Center for Theoretical Chemistry        |     
     |                    University of Bonn                     |     
      -----------------------------------------------------------      

   * xtb version 6.7.1 (26dd68d) compiled by 'froitzheim@fs7' on 2026-05-14

   xtb is free software: you can redistribute it and/or modify it under
   the terms of the GNU Lesser General Public License as published by
   the Free Software Foundation, either version 3 of the License, or
   (at your option) any later version.
   
   xtb is distributed in the hope that it will be useful,
   but WITHOUT ANY WARRANTY; without even the implied warranty of
   MERCHANTABILITY or FITNESS FOR A PARTICULAR PURPOSE.  See the
   GNU Lesser General Public License for more details.
   
   Cite this work as:
   * C. Bannwarth, E. Caldeweyher, S. Ehlert, A. Hansen, P. Pracht,
     J. Seibert, S. Spicher, S. Grimme, WIREs Comput. Mol. Sci., 2020, 11,
     e01493. DOI: 10.1002/wcms.1493
   
   for g-xTB:
   * T. Froitzheim, M. Müller, A. Hansen, S. Grimme, ChemRxiv, 2025, preprint.
     DOI: 10.26434/chemrxiv-2025-bjxv
   for GFN2-xTB:
   * C. Bannwarth, S. Ehlert and S. Grimme., J. Chem. Theory Comput., 2019,
     15, 1652-1671. DOI: 10.1021/acs.jctc.8b01176
   for GFN1-xTB:
   * S. Grimme, C. Bannwarth, P. Shushkov, J. Chem. Theory Comput., 2017,
     13, 1989-2009. DOI: 10.1021/acs.jctc.7b00118
   for GFN0-xTB:
   * P. Pracht, E. Caldeweyher, S. Ehlert, S. Grimme, ChemRxiv, 2019, preprint.
     DOI: 10.26434/chemrxiv.8326202.v1
   for GFN-FF:
   * S. Spicher and S. Grimme, Angew. Chem. Int. Ed., 2020, 59, 15665-15673.
     DOI: 10.1002/anie.202004239
   
   for ALPB and GBSA implicit solvation:
   * S. Ehlert, M. Stahn, S. Spicher, S. Grimme, J. Chem. Theory Comput.,
     2021, 17, 4250-4261. DOI: 10.1021/acs.jctc.1c00471
   
   for ddCOSMO and CPCM-X implicit solvation:
   * M. Stahn, S. Ehlert, S. Grimme, J. Phys. Chem. A,
     2023, XX, XXXX-XXXX. DOI: 10.1021/acs.jpca.3c04382
   
   for DFT-D4:
   * E. Caldeweyher, C. Bannwarth and S. Grimme, J. Chem. Phys., 2017,
     147, 034112. DOI: 10.1063/1.4993215
   * E. Caldeweyher, S. Ehlert, A. Hansen, H. Neugebauer, S. Spicher,
     C. Bannwarth and S. Grimme, J. Chem. Phys., 2019, 150, 154122.
     DOI: 10.1063/1.5090222
   * E. Caldeweyher, J.-M. Mewes, S. Ehlert and S. Grimme, Phys. Chem. Chem. Phys.
     2020, 22, 8499-8512. DOI: 10.1039/D0CP00502A
   
   for sTDA-xTB:
   * S. Grimme and C. Bannwarth, J. Chem. Phys., 2016, 145, 054103.
     DOI: 10.1063/1.4959605
   
   in the mass-spec context:
   * V. Asgeirsson, C. Bauer and S. Grimme, Chem. Sci., 2017, 8, 4879.
     DOI: 10.1039/c7sc00601b
   * J. Koopman and S. Grimme, ACS Omega 2019, 4, 12, 15120-15133.
     DOI: 10.1021/acsomega.9b02011
   
   for metadynamics refer to:
   * S. Grimme, J. Chem. Theory Comput., 2019, 155, 2847-2862
     DOI: 10.1021/acs.jctc.9b00143
   
   for SPH calculations refer to:
   * S. Spicher and S. Grimme, J. Chem. Theory Comput., 2021, 17, 1701-1714
     DOI: 10.1021/acs.jctc.0c01306
   
   for ONIOM refer to:
   * C. Plett, A. Katbashev, S. Ehlert, S. Grimme, M. Bursch,
     Phys. Chem. Chem. Phys., 2023, 25, 17860-17868. DOI: 10.1039/D3CP02178E
   
   for DIPRO refer to:
   * J. Kohn, N. Gildemeister, S. Grimme, D. Fazzi, A. Hansen,
     J. Chem. Phys. 159, 144106 (2023). DOI: 10.1063/5.0167484
   
   for PTB refer to:
   * S. Grimme, M. Mueller, A. Hansen, J. Chem. Phys., 2023, 158, 124111.
     DOI: 10.1063/5.0137838
   
   with help from (in alphabetical order)
   P. Atkinson, C. Bannwarth, F. Bohle, G. Brandenburg, E. Caldeweyher,
   M. Checinski, S. Dohm, S. Ehlert, S. Ehrlich, M. Friede, T. Froitzheim,
   I. Gerasimov, C. Hölzer, A. Katbashev, J. Kohn, J. Koopman, C. Lavigne,
   S. Lehtola, F. März, M. Müller, F. Musil, H. Neugebauer, J. Pisarek,
   C. Plett, P. Pracht, F. Pultar, J. Seibert, P. Shushkov, S. Spicher,
   M. Stahn, M. Steiner, T. Strunk, J. Stückrath, T. Rose, and J. Unsleber
   
 * started run on 2026/05/23 at 08:14:05.732     
   ID    Z sym.   atoms
    1    7 N      1, 5, 10, 17, 23, 28, 35
    2    6 C      2, 3, 6-8, 11-14, 16, 20, 21, 24-26, 29, 31-34, 36-40
    3    8 O      4, 9, 15, 18, 19, 22, 27, 30
    4    1 H      41-70

           -------------------------------------------------
          |                Calculation Setup                |
           -------------------------------------------------

          program call               : /home/xchen/software/xtb-6.7.1-gxtb/bin/xtb /home/xchen/Test/benchmark/md_sampled/01_6_0109_n1/snap_0038.xyz --charge -1 --gxtb --norestart
          coordinate file            : /home/xchen/Test/benchmark/md_sampled/01_6_0109_n1/snap_0038.xyz
          omp threads                :                    48

core increment energy         -1.7791297691186E+03 Eh
dispersion energy              1.0293400766869E-02 Eh
molecular charge              -1.0000000000000E+00 e
number of electrons            2.1399999999800E+02 e
number of unpaired electrons   0.0000000000000E+00 e
wavefunction                   restricted
integral cutoff                2.6907767250513E+01 bohr
energy convergence             1.0000000000000E-06 Eh
density convergence            2.0000000000000E-05 e

------------------------------------------------------------
  cycle        total energy    energy error   density error
------------------------------------------------------------
      1     -1954.957807677  -1.7583833E+02   0.0000000E+00
      2     -1955.299471623  -3.4166395E-01   2.5385041E-02
      3     -1955.513653091  -2.1418147E-01   1.9965316E-02
      4     -1955.956424915  -4.4277182E-01   1.5784539E-02
      5     -1955.964579207  -8.1542919E-03   1.2764117E-03
      6     -1955.965070415  -4.9120812E-04   2.0625463E-04
      7     -1955.965117084  -4.6668804E-05   7.4283095E-05
      8     -1955.965120933  -3.8487892E-06   1.7780359E-05
      9     -1955.965121588  -6.5542039E-07   5.4758787E-06
------------------------------------------------------------

electronic energy             -1.7684564587009E+02 Eh
total energy                  -1.9559651215879E+03 Eh

Post processing:
 | Mayer-Wiberg bond orders
 | Molecular Multipole Moments

 total:                                  12.577 sec
 - increment                              0.000 sec (  0%)
 - repulsion                              0.010 sec (  0%)
 - dispersion                             0.219 sec (  1%)
 - coulomb                                0.132 sec (  1%)
 - exchange                               0.010 sec (  0%)
 - hamiltonian                            0.482 sec (  3%)
 - acp                                    0.276 sec (  2%)
 - spin polarization                      0.000 sec (  0%)
 - post processing                        0.104 sec (  0%)
 - scc                                   10.100 sec ( 80%)
 - coulomb gradient                       0.161 sec (  1%)
 - dispersion gradient                    0.025 sec (  0%)
 - exchange gradient                      0.349 sec (  2%)
 - repulsion gradient                     0.007 sec (  0%)
 - acp gradient                           0.357 sec (  2%)
 - hamiltonian gradient                   0.445 sec (  3%)
 - gradient                               1.343 sec ( 10%)

         :::::::::::::::::::::::::::::::::::::::::::::::::::::
         ::                     SUMMARY                     ::
         :::::::::::::::::::::::::::::::::::::::::::::::::::::
         :: total energy           -1955.965121587926 Eh    ::
         :: gradient norm              0.325936965080 Eh/a0 ::
         :: HOMO-LUMO gap              5.709861389089 eV    ::
         ::.................................................::
         :: add. restraining           0.000000000000 Eh    ::
         :: total charge              -1.000000000000 e     ::
         :::::::::::::::::::::::::::::::::::::::::::::::::::::

           -------------------------------------------------
          |                Property Printout                |
           -------------------------------------------------

    * Orbital Energies and Occupations
------------------------------------------------------------------
      #    Occupation            Energy/Eh            Energy/eV
------------------------------------------------------------------
      1        2.0000           -1.2674217             -34.4883
    ...           ...                  ...                  ...
     95        2.0000           -0.2983018              -8.1172
     96        2.0000           -0.2938719              -7.9967
     97        2.0000           -0.2923792              -7.9560
     98        2.0000           -0.2859850              -7.7820
     99        2.0000           -0.2852631              -7.7624
    100        2.0000           -0.2850488              -7.7566
    101        2.0000           -0.2768572              -7.5337
    102        2.0000           -0.2759625              -7.5093
    103        2.0000           -0.2699852              -7.3467
    104        2.0000           -0.2561314              -6.9697
    105        2.0000           -0.1850662              -5.0359
    106        2.0000           -0.1655955              -4.5061
    107        2.0000           -0.1490667              -4.0563 (HOMO)
    108                          0.0607668               1.6535 (LUMO)
    109                          0.0764687               2.0808
    110                          0.0823957               2.2421
    111                          0.0888501               2.4177
    112                          0.0940299               2.5587
    113                          0.1065676               2.8999
    114                          0.1083553               2.9485
    115                          0.1197499               3.2586
    116                          0.1243303               3.3832
    117                          0.2156703               5.8687
    118                          0.2258062               6.1445
    ...                                ...                  ...
    190                          0.9659772              26.2856
------------------------------------------------------------------
               HL-Gap            0.2098335 Eh            5.7099 eV
------------------------------------------------------------------

Atomic charges and shell populations (in atomic units):
------------------------------------------------------
     #    Z                q          p(s)       p(p)
------------------------------------------------------
     1    7 N      -0.299288      1.340451   3.958838
     2    6 C      -0.076079      1.118587   2.957492
     3    6 C       0.427799      1.106598   2.465603
     4    8 O      -0.531405      1.853896   4.677509
     5    7 N      -0.337764      1.345958   3.991806
     6    6 C      -0.011701      1.120696   2.891005
     7    6 C       0.392790      1.122727   2.484483
     8    6 C      -0.001819      1.134474   2.867345
     9    8 O      -0.574897      1.864735   4.710162
    10    7 N      -0.283701      1.349873   3.933828
    11    6 C      -0.154290      1.170136   2.984154
    12    6 C       0.406993      1.089758   2.503248
    13    6 C      -0.207151      1.180851   3.026300
    14    6 C      -0.063828      1.141331   2.922496
    15    8 O      -0.584558      1.862250   4.722308
    16    6 C       0.519286      1.061939   2.418775
    17    7 N      -0.300984      1.367213   3.933770
    18    8 O      -0.707359      1.852317   4.855042
    19    8 O      -0.671825      1.844208   4.827617
    20    6 C       0.389510      1.101157   2.509332
    21    6 C       0.001389      1.119579   2.879031
    22    8 O      -0.565394      1.856972   4.708422
    23    7 N      -0.333512      1.381438   3.952074
    24    6 C      -0.284988      1.160829   3.124159
    25    6 C       0.402563      1.108749   2.488688
    26    6 C      -0.066126      1.135785   2.930341
    27    8 O      -0.531064      1.861080   4.669983
    28    7 N      -0.328063      1.353785   3.974277
    29    6 C       0.421865      1.107185   2.470949
    30    8 O      -0.570515      1.858095   4.712419
    31    6 C      -0.135309      1.154734   2.980575
    32    6 C      -0.088437      1.130978   2.957459
    33    6 C      -0.000695      1.145791   2.854903
    34    6 C      -0.046446      1.126112   2.920334
    35    7 N      -0.252187      1.358204   3.893983
    36    6 C       0.045274      1.117869   2.836857
    37    6 C      -0.103937      1.139165   2.964772
    38    6 C      -0.095731      1.148766   2.946965
    39    6 C      -0.131132      1.147514   2.983618
    40    6 C      -0.108277      1.149477   2.958800
    41    1 H       0.261995      0.738005
    42    1 H       0.154500      0.845500
    43    1 H       0.114496      0.885504
    44    1 H       0.265412      0.734588
    45    1 H       0.127560      0.872440
    46    1 H       0.119782      0.880218
    47    1 H       0.286809      0.713191
    48    1 H       0.098253      0.901747
    49    1 H       0.117988      0.882012
    50    1 H       0.078291      0.921709
    51    1 H       0.083116      0.916884
    52    1 H       0.106791      0.893209
    53    1 H       0.116646      0.883354
    54    1 H       0.278165      0.721835
    55    1 H       0.129082      0.870918
    56    1 H       0.260520      0.739480
    57    1 H       0.107501      0.892499
    58    1 H       0.103077      0.896923
    59    1 H       0.126121      0.873879
    60    1 H       0.101805      0.898195
    61    1 H       0.132416      0.867584
    62    1 H       0.293970      0.706030
    63    1 H       0.093633      0.906367
    64    1 H       0.123234      0.876766
    65    1 H       0.119588      0.880412
    66    1 H       0.251859      0.748141
    67    1 H       0.100248      0.899752
    68    1 H       0.082334      0.917666
    69    1 H       0.107210      0.892790
    70    1 H       0.098589      0.901411
------------------------------------------------------


Wiberg/Mayer (AO) data.
largest (>0.10) Wiberg bond orders for each atom

 ---------------------------------------------------------------------------
     #   Z sym  total        # sym  WBO       # sym  WBO       # sym  WBO
 ---------------------------------------------------------------------------
     1   7 N    3.363 --     7 C    1.248     2 C    0.991    41 O    0.896
                             9 C    0.153
     2   6 C    3.922 --     1 N    0.991    43 O    0.948    42 O    0.942
                             3 C    0.933
     3   6 C    3.857 --     4 C    1.680     5 N    1.170     2 C    0.933
     4   8 C    1.959 --     3 C    1.680     5 N    0.153
     5   7 N    3.315 --     3 C    1.170     6 C    0.990    44 O    0.902
                             4 C    0.153
     6   6 C    3.937 --     5 N    0.990    31 C    0.952    45 O    0.948
                            29 C    0.918
     7   6 C    3.858 --     9 C    1.602     1 N    1.248     8 C    0.931
     8   6 C    3.912 --    10 N    0.962    11 C    0.947    46 O    0.943
                             7 C    0.931
     9   8 C    1.875 --     7 C    1.602     1 N    0.153
    10   7 N    3.426 --    12 C    1.333     8 C    0.962    47 O    0.879
                            15 C    0.176
    11   6 C    3.934 --    13 C    0.998    48 O    0.959     8 C    0.947
                            49 O    0.945
    12   6 C    3.891 --    15 C    1.564    10 N    1.333    14 C    0.934
    13   6 C    3.943 --    11 C    0.998    51 O    0.962    50 O    0.961
                            16 C    0.883
    14   6 C    3.913 --    17 N    0.973    53 O    0.951    52 O    0.945
                            12 C    0.934
    15   8 C    1.857 --    12 C    1.564    10 N    0.176
    16   6 C    3.872 --    19 C    1.520    18 C    1.453    13 C    0.883
    17   7 N    3.367 --    20 C    1.275    14 C    0.973    54 O    0.878
                            22 C    0.166
    18   8 C    1.733 --    16 C    1.453    19 C    0.201
    19   8 C    1.803 --    16 C    1.520    18 C    0.201
    20   6 C    3.885 --    22 C    1.614    17 N    1.275    21 C    0.921
    21   6 C    3.933 --    24 C    1.008    23 N    0.946    55 O    0.942
                            20 C    0.921
    22   8 C    1.898 --    20 C    1.614    17 N    0.166
    23   7 N    3.310 --    25 C    1.226    21 C    0.946    56 O    0.892
                            27 C    0.152
    24   6 C    3.951 --    21 C    1.008    58 O    0.972    57 O    0.968
                            59 O    0.966
    25   6 C    3.870 --    27 C    1.652    23 N    1.226    26 C    0.933
    26   6 C    3.934 --    28 N    0.993    60 O    0.954    61 O    0.939
                            25 C    0.933
    27   8 C    1.935 --    25 C    1.652    23 N    0.152
    28   7 N    3.326 --    29 C    1.230    26 C    0.993    62 O    0.874
                            30 C    0.151
    29   6 C    3.862 --    30 C    1.625    28 N    1.230     6 C    0.918
    30   8 C    1.893 --    29 C    1.625    28 N    0.151
    31   6 C    3.955 --    32 C    1.008    63 O    0.957    64 O    0.955
                             6 C    0.952
    32   6 C    3.942 --    33 C    1.618    34 C    1.140    31 C    1.008
    33   6 C    3.920 --    32 C    1.618    35 N    1.183    65 O    0.949
    34   6 C    3.971 --    37 C    1.313    36 C    1.303    32 C    1.140
    35   7 N    3.433 --    33 C    1.183    36 C    1.126    66 O    0.903
    36   6 C    3.933 --    34 C    1.303    38 C    1.293    35 N    1.126
    37   6 C    3.972 --    39 C    1.560    34 C    1.313    67 O    0.946
    38   6 C    3.961 --    40 C    1.554    36 C    1.293    68 O    0.952
    39   6 C    3.966 --    37 C    1.560    40 C    1.293    69 O    0.956
    40   6 C    3.968 --    38 C    1.554    39 C    1.293    70 O    0.957
    41   1 O    0.931 --     1 N    0.896
    42   1 O    0.976 --     2 C    0.942
    43   1 O    0.987 --     2 C    0.948
    44   1 O    0.930 --     5 N    0.902
    45   1 O    0.984 --     6 C    0.948
    46   1 O    0.986 --     8 C    0.943
    47   1 O    0.918 --    10 N    0.879
    48   1 O    0.990 --    11 C    0.959
    49   1 O    0.986 --    11 C    0.945
    50   1 O    0.994 --    13 C    0.961
    51   1 O    0.993 --    13 C    0.962
    52   1 O    0.989 --    14 C    0.945
    53   1 O    0.986 --    14 C    0.951
    54   1 O    0.923 --    17 N    0.878
    55   1 O    0.983 --    21 C    0.942
    56   1 O    0.932 --    23 N    0.892
    57   1 O    0.988 --    24 C    0.968
    58   1 O    0.989 --    24 C    0.972
    59   1 O    0.984 --    24 C    0.966
    60   1 O    0.990 --    26 C    0.954
    61   1 O    0.982 --    26 C    0.939
    62   1 O    0.914 --    28 N    0.874
    63   1 O    0.991 --    31 C    0.957
    64   1 O    0.985 --    31 C    0.955
    65   1 O    0.986 --    33 C    0.949
    66   1 O    0.937 --    35 N    0.903
    67   1 O    0.990 --    37 C    0.946
    68   1 O    0.993 --    38 C    0.952
    69   1 O    0.989 --    39 C    0.956
    70   1 O    0.990 --    40 C    0.957
 ---------------------------------------------------------------------------

Topologies differ in total number of bonds
Writing topology from bond orders to xtbtopo.mol

Atomic dipole moments (in atomic units):
---------------------------------------------------------
     #    Z                 x            y            z
---------------------------------------------------------
           total     5.502355    10.703925     9.419412
---------------------------------------------------------
         |total|    15.283168    38.845939 Debye


           -------------------------------------------------
          | TOTAL ENERGY            -1955.965121587926 Eh   |
          | GRADIENT NORM               0.325936965080 Eh/α |
           -------------------------------------------------

------------------------------------------------------------------------
 * finished run on 2026/05/23 at 08:14:19.261     
------------------------------------------------------------------------
 total:
 * wall-time:     0 d,  0 h,  0 min, 13.528 sec
 *  cpu-time:     0 d,  0 h,  0 min, 19.692 sec
 * ratio c/w:     1.456 speedup
 SCF:
 * wall-time:     0 d,  0 h,  0 min, 12.883 sec
 *  cpu-time:     0 d,  0 h,  0 min, 19.415 sec
 * ratio c/w:     1.507 speedup

normal termination of xtb
