      -----------------------------------------------------------      
     |                   =====================                   |     
     |                           x T B                           |     
     |                   =====================                   |     
     |                         S. Grimme                         |     
     |          Mulliken Center for Theoretical Chemistry        |     
     |                    University of Bonn                     |     
      -----------------------------------------------------------      

   * xtb version 6.7.1 (edcfbbe) compiled by 'albert@albert-system' on 2024-07-22

   xtb is free software: you can redistribute it and/or modify it under
   the terms of the GNU Lesser General Public License as published by
   the Free Software Foundation, either version 3 of the License, or
   (at your option) any later version.
   
   xtb is distributed in the hope that it will be useful,
   but WITHOUT ANY WARRANTY; without even the implied warranty of
   MERCHANTABILITY or FITNESS FOR A PARTICULAR PURPOSE.  See the
   GNU Lesser General Public License for more details.
   
   Cite this work as:
   * C. Bannwarth, E. Caldeweyher, S. Ehlert, A. Hansen, P. Pracht,
     J. Seibert, S. Spicher, S. Grimme, WIREs Comput. Mol. Sci., 2020, 11,
     e01493. DOI: 10.1002/wcms.1493
   
   for GFN2-xTB:
   * C. Bannwarth, S. Ehlert and S. Grimme., J. Chem. Theory Comput., 2019,
     15, 1652-1671. DOI: 10.1021/acs.jctc.8b01176
   for GFN1-xTB:
   * S. Grimme, C. Bannwarth, P. Shushkov, J. Chem. Theory Comput., 2017,
     13, 1989-2009. DOI: 10.1021/acs.jctc.7b00118
   for GFN0-xTB:
   * P. Pracht, E. Caldeweyher, S. Ehlert, S. Grimme, ChemRxiv, 2019, preprint.
     DOI: 10.26434/chemrxiv.8326202.v1
   for GFN-FF:
   * S. Spicher and S. Grimme, Angew. Chem. Int. Ed., 2020, 59, 15665-15673.
     DOI: 10.1002/anie.202004239
   
   for ALPB and GBSA implicit solvation:
   * S. Ehlert, M. Stahn, S. Spicher, S. Grimme, J. Chem. Theory Comput.,
     2021, 17, 4250-4261. DOI: 10.1021/acs.jctc.1c00471
   
   for ddCOSMO and CPCM-X implicit solvation:
   * M. Stahn, S. Ehlert, S. Grimme, J. Phys. Chem. A,
     2023, XX, XXXX-XXXX. DOI: 10.1021/acs.jpca.3c04382
   
   for DFT-D4:
   * E. Caldeweyher, C. Bannwarth and S. Grimme, J. Chem. Phys., 2017,
     147, 034112. DOI: 10.1063/1.4993215
   * E. Caldeweyher, S. Ehlert, A. Hansen, H. Neugebauer, S. Spicher,
     C. Bannwarth and S. Grimme, J. Chem. Phys., 2019, 150, 154122.
     DOI: 10.1063/1.5090222
   * E. Caldeweyher, J.-M. Mewes, S. Ehlert and S. Grimme, Phys. Chem. Chem. Phys.
     2020, 22, 8499-8512. DOI: 10.1039/D0CP00502A
   
   for sTDA-xTB:
   * S. Grimme and C. Bannwarth, J. Chem. Phys., 2016, 145, 054103.
     DOI: 10.1063/1.4959605
   
   in the mass-spec context:
   * V. Asgeirsson, C. Bauer and S. Grimme, Chem. Sci., 2017, 8, 4879.
     DOI: 10.1039/c7sc00601b
   * J. Koopman and S. Grimme, ACS Omega 2019, 4, 12, 15120-15133.
     DOI: 10.1021/acsomega.9b02011
   
   for metadynamics refer to:
   * S. Grimme, J. Chem. Theory Comput., 2019, 155, 2847-2862
     DOI: 10.1021/acs.jctc.9b00143
   
   for SPH calculations refer to:
   * S. Spicher and S. Grimme, J. Chem. Theory Comput., 2021, 17, 1701-1714
     DOI: 10.1021/acs.jctc.0c01306
   
   for ONIOM refer to:
   * C. Plett, A. Katbashev, S. Ehlert, S. Grimme, M. Bursch,
     Phys. Chem. Chem. Phys., 2023, 25, 17860-17868. DOI: 10.1039/D3CP02178E
   
   for DIPRO refer to:
   * J. Kohn, N. Gildemeister, S. Grimme, D. Fazzi, A. Hansen,
     J. Chem. Phys., 2023, just accepted.
   
   for PTB refer to:
   * S. Grimme, M. Mueller, A. Hansen, J. Chem. Phys., 2023, 158, 124111.
     DOI: 10.1063/5.0137838
   
   with help from (in alphabetical order)
   P. Atkinson, C. Bannwarth, F. Bohle, G. Brandenburg, E. Caldeweyher
   M. Checinski, S. Dohm, S. Ehlert, S. Ehrlich, I. Gerasimov, C. Hölzer
   A. Katbashev, J. Kohn, J. Koopman, C. Lavigne, S. Lehtola, F. März, M. Müller,
   F. Musil, H. Neugebauer, J. Pisarek, C. Plett, P. Pracht, F. Pultar,
   J. Seibert, P. Shushkov, S. Spicher, M. Stahn, M. Steiner, T. Strunk,
   J. Stückrath, T. Rose, and J. Unsleber
   
 * started run on 2026/05/23 at 12:25:16.557     
   ID    Z sym.   atoms
    1    7 N      1, 5, 10, 18, 29, 37, 45, 48
    2    6 C      2, 3, 6-8, 11-14, 16, 17, 19-25, 27, 28, 30-33, 35, 36,
                  38-43, 46, 47, 49-56
    3    8 O      4, 9, 15, 26, 34, 44
    4    1 H      57-114

           -------------------------------------------------
          |                Calculation Setup                |
           -------------------------------------------------

          program call               : /home/xchen/software/xtb-6.7.1/xtb-dist/bin/xtb /home/xchen/Test/benchmark/md_sampled/10_6_0573_0/snap_0012.xyz --charge 0 --gfn 2 --norestart
          coordinate file            : /home/xchen/Test/benchmark/md_sampled/10_6_0573_0/snap_0012.xyz
          omp threads                :                    48


           -------------------------------------------------
          |                 G F N 2 - x T B                 |
           -------------------------------------------------

        Reference                      10.1021/acs.jctc.8b01176
      * Hamiltonian:
        H0-scaling (s, p, d)           1.850000    2.230000    2.230000
        zeta-weighting                 0.500000
      * Dispersion:
        s8                             2.700000
        a1                             0.520000
        a2                             5.000000
        s9                             5.000000
      * Repulsion:
        kExp                           1.500000    1.000000
        rExp                           1.000000
      * Coulomb:
        alpha                          2.000000
        third order                    shell-resolved
        anisotropic                    true
        a3                             3.000000
        a5                             4.000000
        cn-shift                       1.200000
        cn-exp                         4.000000
        max-rad                        5.000000


          ...................................................
          :                      SETUP                      :
          :.................................................:
          :  # basis functions                 282          :
          :  # atomic orbitals                 282          :
          :  # shells                          170          :
          :  # electrons                       302          :
          :  max. iterations                   250          :
          :  Hamiltonian                  GFN2-xTB          :
          :  restarted?                      false          :
          :  GBSA solvation                  false          :
          :  PC potential                    false          :
          :  electronic temp.          300.0000000     K    :
          :  accuracy                    1.0000000          :
          :  -> integral cutoff          0.2500000E+02      :
          :  -> integral neglect         0.1000000E-07      :
          :  -> SCF convergence          0.1000000E-05 Eh   :
          :  -> wf. convergence          0.1000000E-03 e    :
          :  Broyden damping             0.4000000          :
          :  net charge                          0          :
          :  unpaired electrons                  0          :
          ...................................................

 iter      E             dE          RMSdq      gap      omega  full diag
   1   -169.0125430 -0.169013E+03  0.384E+00    3.14       0.0  T
   2   -169.4457976 -0.433255E+00  0.218E+00    2.28       1.0  T
   3   -169.4762620 -0.304644E-01  0.122E+00    2.72       1.0  T
   4   -169.4785603 -0.229830E-02  0.386E-01    2.47       1.0  T
   5   -169.4946724 -0.161121E-01  0.106E-01    2.56       1.0  T
   6   -169.4951235 -0.451117E-03  0.576E-02    2.54       1.0  T
   7   -169.4952370 -0.113464E-03  0.257E-02    2.54       1.0  T
   8   -169.4952439 -0.692397E-05  0.944E-03    2.54       1.0  T
   9   -169.4952480 -0.404004E-05  0.411E-03    2.54       2.3  T
  10   -169.4952485 -0.556808E-06  0.178E-03    2.54       5.3  T
  11   -169.4952486 -0.852577E-07  0.786E-04    2.54      11.9  T
  12   -169.4952486 -0.226454E-07  0.296E-04    2.54      31.7  T

   *** convergence criteria satisfied after 12 iterations ***

         #    Occupation            Energy/Eh            Energy/eV
      -------------------------------------------------------------
         1        2.0000           -0.7273776             -19.7930
       ...           ...                  ...                  ...
       145        2.0000           -0.3913018             -10.6479
       146        2.0000           -0.3901162             -10.6156
       147        2.0000           -0.3852593             -10.4834
       148        2.0000           -0.3733368             -10.1590
       149        2.0000           -0.3712169             -10.1013
       150        2.0000           -0.3619258              -9.8485
       151        2.0000           -0.3481249              -9.4730 (HOMO)
       152                         -0.2548879              -6.9359 (LUMO)
       153                         -0.2485492              -6.7634
       154                         -0.2391487              -6.5076
       155                         -0.2376126              -6.4658
       156                         -0.2346244              -6.3845
       ...                                ...                  ...
       282                          0.6494700              17.6730
      -------------------------------------------------------------
                  HL-Gap            0.0932370 Eh            2.5371 eV
             Fermi-level           -0.3015064 Eh           -8.2044 eV

 SCC (total)                   0 d,  0 h,  0 min, 22.764 sec
 SCC setup                      ...        0 min,  0.062 sec (  0.274%)
 Dispersion                     ...        0 min,  0.129 sec (  0.568%)
 classical contributions        ...        0 min,  0.043 sec (  0.190%)
 integral evaluation            ...        0 min,  0.375 sec (  1.645%)
 iterations                     ...        0 min, 20.460 sec ( 89.878%)
 molecular gradient             ...        0 min,  1.602 sec (  7.037%)
 printout                       ...        0 min,  0.013 sec (  0.057%)

         :::::::::::::::::::::::::::::::::::::::::::::::::::::
         ::                     SUMMARY                     ::
         :::::::::::::::::::::::::::::::::::::::::::::::::::::
         :: total energy            -167.230304579814 Eh    ::
         :: gradient norm              0.358038104483 Eh/a0 ::
         :: HOMO-LUMO gap              2.537107309813 eV    ::
         ::.................................................::
         :: SCC energy              -169.487826231103 Eh    ::
         :: -> isotropic ES            0.254506552383 Eh    ::
         :: -> anisotropic ES          0.019977427515 Eh    ::
         :: -> anisotropic XC          0.076826769606 Eh    ::
         :: -> dispersion             -0.142728261452 Eh    ::
         :: repulsion energy           2.257521651289 Eh    ::
         :: add. restraining           0.000000000000 Eh    ::
         :: total charge              -0.000000000000 e     ::
         :::::::::::::::::::::::::::::::::::::::::::::::::::::

           -------------------------------------------------
          |                Property Printout                |
           -------------------------------------------------

    * Orbital Energies and Occupations

         #    Occupation            Energy/Eh            Energy/eV
      -------------------------------------------------------------
         1        2.0000           -0.7273776             -19.7930
       ...           ...                  ...                  ...
       139        2.0000           -0.4032034             -10.9717
       140        2.0000           -0.4012289             -10.9180
       141        2.0000           -0.3976841             -10.8215
       142        2.0000           -0.3969832             -10.8025
       143        2.0000           -0.3942269             -10.7275
       144        2.0000           -0.3932365             -10.7005
       145        2.0000           -0.3913018             -10.6479
       146        2.0000           -0.3901162             -10.6156
       147        2.0000           -0.3852593             -10.4834
       148        2.0000           -0.3733368             -10.1590
       149        2.0000           -0.3712169             -10.1013
       150        2.0000           -0.3619258              -9.8485
       151        2.0000           -0.3481249              -9.4730 (HOMO)
       152                         -0.2548879              -6.9359 (LUMO)
       153                         -0.2485492              -6.7634
       154                         -0.2391487              -6.5076
       155                         -0.2376126              -6.4658
       156                         -0.2346244              -6.3845
       157                         -0.2316331              -6.3031
       158                         -0.2247259              -6.1151
       159                         -0.2172288              -5.9111
       160                         -0.2116178              -5.7584
       161                         -0.1979897              -5.3876
       162                         -0.1853023              -5.0423
       ...                                ...                  ...
       282                          0.6494700              17.6730
      -------------------------------------------------------------
                  HL-Gap            0.0932370 Eh            2.5371 eV
             Fermi-level           -0.3015064 Eh           -8.2044 eV

     #   Z          covCN         q      C6AA      α(0)
     1   7 N        2.691    -0.198    25.308     7.472
     2   6 C        3.811     0.021    20.218     6.400
     3   6 C        2.757     0.269    22.460     7.761
     4   8 O        0.857    -0.434    22.373     6.342
     5   7 N        2.686    -0.196    25.262     7.465
     6   6 C        3.823     0.019    20.240     6.402
     7   6 C        2.783     0.281    22.249     7.726
     8   6 C        3.796     0.023    20.198     6.400
     9   8 O        0.859    -0.431    22.312     6.333
    10   7 N        2.685    -0.165    24.565     7.361
    11   6 C        3.805    -0.058    21.606     6.617
    12   6 C        2.744     0.267    22.495     7.766
    13   6 C        2.967     0.007    27.871     8.660
    14   6 C        3.792     0.007    20.465     6.442
    15   8 O        0.857    -0.418    22.050     6.296
    16   6 C        2.944    -0.034    28.848     8.809
    17   6 C        2.912    -0.047    29.169     8.856
    18   7 N        2.678    -0.219    25.773     7.540
    19   6 C        3.807    -0.062    21.685     6.629
    20   6 C        2.911    -0.022    28.566     8.764
    21   6 C        2.912    -0.033    28.832     8.805
    22   6 C        2.758     0.266    22.507     7.769
    23   6 C        3.834    -0.013    20.789     6.487
    24   6 C        2.934    -0.029    28.714     8.788
    25   6 C        3.795     0.028    20.116     6.387
    26   8 O        0.857    -0.411    21.896     6.274
    27   6 C        3.736    -0.118    22.845     6.821
    28   6 C        3.749    -0.118    22.830     6.815
    29   7 N        2.689    -0.200    25.339     7.476
    30   6 C        3.806    -0.063    21.701     6.632
    31   6 C        2.775     0.269    22.455     7.761
    32   6 C        2.950     0.012    27.754     8.641
    33   6 C        3.795     0.007    20.469     6.442
    34   8 O        0.859    -0.413    21.936     6.279
    35   6 C        2.917    -0.044    29.095     8.845
    36   6 C        2.905    -0.033    28.820     8.803
    37   7 N        2.683    -0.185    25.000     7.426
    38   6 C        3.804    -0.060    21.659     6.626
    39   6 C        2.903    -0.041    29.010     8.831
    40   6 C        2.887    -0.019    28.492     8.751
    41   6 C        2.773     0.270    22.438     7.758
    42   6 C        3.108     0.069    26.311     8.404
    43   6 C        2.904    -0.033    28.824     8.803
    44   8 O        0.858    -0.464    22.992     6.429
    45   7 N        1.951    -0.283    28.164     7.870
    46   6 C        3.026    -0.029    28.694     8.787
    47   6 C        3.042     0.083    26.116     8.382
    48   7 N        2.821    -0.078    22.744     7.083
    49   6 C        3.839    -0.012    20.755     6.481
    50   6 C        3.755    -0.114    22.738     6.799
    51   6 C        3.810    -0.072    21.870     6.657
    52   6 C        3.750    -0.116    22.779     6.807
    53   6 C        3.861    -0.033    21.114     6.535
    54   6 C        3.775    -0.107    22.572     6.769
    55   6 C        3.791    -0.058    21.620     6.622
    56   6 C        3.749    -0.096    22.403     6.751
    57   1 H        0.860     0.188     1.167     1.693
    58   1 H        0.924     0.069     2.095     2.264
    59   1 H        0.858     0.180     1.214     1.726
    60   1 H        0.923     0.079     1.990     2.206
    61   1 H        0.924     0.063     2.166     2.302
    62   1 H        0.861     0.188     1.170     1.694
    63   1 H        0.911     0.020     2.736     2.588
    64   1 H        0.926     0.048     2.342     2.393
    65   1 H        0.920     0.103     1.762     2.076
    66   1 H        0.928     0.036     2.501     2.473
    67   1 H        0.927     0.038     2.468     2.457
    68   1 H        0.861     0.182     1.202     1.717
    69   1 H        0.928     0.038     2.473     2.459
    70   1 H        0.916     0.045     2.384     2.415
    71   1 H        0.926     0.044     2.396     2.421
    72   1 H        0.924     0.033     2.542     2.493
    73   1 H        0.925     0.028     2.609     2.526
    74   1 H        0.921     0.031     2.578     2.511
    75   1 H        0.919     0.075     2.027     2.227
    76   1 H        0.923     0.047     2.353     2.399
    77   1 H        0.919     0.029     2.596     2.520
    78   1 H        0.928     0.054     2.266     2.354
    79   1 H        0.924     0.041     2.435     2.440
    80   1 H        0.926     0.039     2.455     2.450
    81   1 H        0.927     0.053     2.284     2.363
    82   1 H        0.861     0.217     1.025     1.586
    83   1 H        0.917     0.027     2.633     2.538
    84   1 H        0.925     0.042     2.418     2.432
    85   1 H        0.924     0.099     1.791     2.093
    86   1 H        0.927     0.017     2.785     2.610
    87   1 H        0.925     0.040     2.454     2.450
    88   1 H        0.860     0.208     1.064     1.616
    89   1 H        0.925     0.063     2.158     2.297
    90   1 H        0.928     0.070     2.083     2.257
    91   1 H        0.926     0.030     2.581     2.512
    92   1 H        0.913     0.035     2.513     2.480
    93   1 H        0.927     0.042     2.420     2.432
    94   1 H        0.928     0.051     2.303     2.373
    95   1 H        0.922     0.037     2.495     2.470
    96   1 H        0.861     0.161     1.330     1.806
    97   1 H        0.919     0.028     2.612     2.528
    98   1 H        0.924     0.040     2.445     2.445
    99   1 H        0.926     0.053     2.289     2.366
   100   1 H        0.928     0.038     2.472     2.458
   101   1 H        0.927     0.075     2.031     2.229
   102   1 H        0.927     0.043     2.404     2.425
   103   1 H        0.927     0.037     2.491     2.468
   104   1 H        0.923     0.051     2.311     2.377
   105   1 H        0.925     0.039     2.467     2.456
   106   1 H        0.926     0.064     2.150     2.293
   107   1 H        0.926     0.045     2.385     2.415
   108   1 H        0.925     0.052     2.293     2.368
   109   1 H        0.924     0.026     2.639     2.541
   110   1 H        0.923     0.036     2.509     2.477
   111   1 H        0.923     0.023     2.689     2.564
   112   1 H        0.924     0.038     2.479     2.462
   113   1 H        0.923     0.035     2.514     2.479
   114   1 H        0.919     0.043     2.411     2.429

 Mol. C6AA /au·bohr⁶  :     129255.277995
 Mol. C8AA /au·bohr⁸  :    2950433.073623
 Mol. α(0) /au        :        548.531834


Wiberg/Mayer (AO) data.
largest (>0.10) Wiberg bond orders for each atom

 ---------------------------------------------------------------------------
     #   Z sym  total        # sym  WBO       # sym  WBO       # sym  WBO
 ---------------------------------------------------------------------------
     1   7 N    3.398 --     7 C    1.252     2 C    0.977    57 H    0.917
                             9 O    0.179
     2   6 C    3.960 --     1 N    0.977     3 C    0.972    58 H    0.948
                            49 C    0.930
     3   6 C    3.952 --     4 O    1.682     5 N    1.213     2 C    0.972
     4   8 O    1.989 --     3 C    1.682     5 N    0.170
     5   7 N    3.377 --     3 C    1.213     6 C    0.986    59 H    0.908
                             4 O    0.170
     6   6 C    3.964 --     5 N    0.986    53 C    0.974    60 H    0.938
                            41 C    0.931
     7   6 C    3.948 --     9 O    1.680     1 N    1.252     8 C    0.928
     8   6 C    3.970 --    10 N    1.005    11 C    0.950    61 H    0.944
                             7 C    0.928
     9   8 O    2.019 --     7 C    1.680     1 N    0.179
    10   7 N    3.442 --    12 C    1.242     8 C    1.005    62 H    0.918
                            15 O    0.194
    11   6 C    3.988 --    13 C    1.015    64 H    0.970    63 H    0.963
                             8 C    0.950
    12   6 C    3.945 --    15 O    1.708    10 N    1.242    14 C    0.925
    13   6 C    3.986 --    16 C    1.457    17 C    1.357    11 C    1.015
                            24 C    0.111
    14   6 C    3.952 --    19 C    0.998    18 N    0.945    65 H    0.942
                            12 C    0.925
    15   8 O    2.018 --    12 C    1.708    10 N    0.194
    16   6 C    3.993 --    13 C    1.457    20 C    1.406    66 H    0.965
                            21 C    0.106
    17   6 C    3.988 --    21 C    1.486    13 C    1.357    67 H    0.973
                            20 C    0.114
    18   7 N    3.387 --    22 C    1.236    14 C    0.945    68 H    0.924
                            26 O    0.181
    19   6 C    3.992 --    23 C    1.012    14 C    0.998    69 H    0.969
                            70 H    0.960
    20   6 C    3.992 --    24 C    1.478    16 C    1.406    71 H    0.967
                            17 C    0.114
    21   6 C    3.989 --    17 C    1.486    24 C    1.399    72 H    0.972
                            16 C    0.106
    22   6 C    3.943 --    26 O    1.719    18 N    1.236    25 C    0.913
    23   6 C    3.993 --    19 C    1.012    28 C    0.997    27 C    0.995
                            73 H    0.971
    24   6 C    3.989 --    20 C    1.478    21 C    1.399    74 H    0.969
                            13 C    0.111
    25   6 C    3.970 --    29 N    1.031    30 C    0.941    75 H    0.928
                            22 C    0.913
    26   8 O    2.034 --    22 C    1.719    18 N    0.181
    27   6 C    3.990 --    23 C    0.995    78 H    0.989    77 H    0.988
                            76 H    0.983
    28   6 C    3.990 --    23 C    0.997    81 H    0.988    80 H    0.987
                            79 H    0.987
    29   7 N    3.366 --    31 C    1.158    25 C    1.031    82 H    0.898
                            34 O    0.166
    30   6 C    3.996 --    32 C    1.047    84 H    0.959    83 H    0.943
                            25 C    0.941
    31   6 C    3.951 --    34 O    1.725    29 N    1.158    33 C    0.991
    32   6 C    3.988 --    35 C    1.398    36 C    1.391    30 C    1.047
                            43 C    0.106
    33   6 C    3.958 --    31 C    0.991    37 N    0.962    38 C    0.941
                            85 H    0.931
    34   8 O    2.028 --    31 C    1.725    29 N    0.166
    35   6 C    3.989 --    39 C    1.455    32 C    1.398    86 H    0.968
                            40 C    0.101
    36   6 C    3.984 --    40 C    1.432    32 C    1.391    87 H    0.973
                            39 C    0.121
    37   7 N    3.464 --    41 C    1.315    33 C    0.962    88 H    0.904
                            44 O    0.198
    38   6 C    3.986 --    42 C    1.020    90 H    0.970    89 H    0.953
                            33 C    0.941
    39   6 C    3.990 --    35 C    1.455    43 C    1.413    91 H    0.972
                            36 C    0.121
    40   6 C    3.984 --    43 C    1.458    36 C    1.432    92 H    0.966
                            35 C    0.101
    41   6 C    3.955 --    44 O    1.637    37 N    1.315     6 C    0.931
    42   6 C    3.973 --    46 C    1.551    45 N    1.284    38 C    1.020
    43   6 C    3.989 --    40 C    1.458    39 C    1.413    93 H    0.973
                            32 C    0.106
    44   8 O    1.956 --    41 C    1.637    37 N    0.198
    45   7 N    3.006 --    47 C    1.529    42 C    1.284    48 N    0.103
    46   6 C    3.935 --    42 C    1.551    48 N    1.196    94 H    0.968
                            47 C    0.132
    47   6 C    3.956 --    45 N    1.529    48 N    1.279    95 H    0.963
                            46 C    0.132
    48   7 N    3.593 --    47 C    1.279    46 C    1.196    96 H    0.945
                            45 N    0.103
    49   6 C    3.985 --    50 C    1.016    51 C    1.008    97 H    0.958
                             2 C    0.930
    50   6 C    3.988 --    49 C    1.016   100 H    0.986    98 H    0.977
                            99 H    0.973
    51   6 C    3.990 --    49 C    1.008    52 C    1.005   102 H    0.978
                           101 H    0.966
    52   6 C    3.992 --    51 C    1.005   103 H    0.990   104 H    0.986
                           105 H    0.985
    53   6 C    3.988 --    54 C    1.022     6 C    0.974    55 C    0.972
                           106 H    0.958
    54   6 C    3.988 --    53 C    1.022   107 H    0.981   108 H    0.971
                           109 H    0.962
    55   6 C    3.995 --    56 C    1.029   111 H    0.975   110 H    0.973
                            53 C    0.972
    56   6 C    3.994 --    55 C    1.029   112 H    0.983   114 H    0.982
                           113 H    0.981
    57   1 H    0.964 --     1 N    0.917
    58   1 H    0.995 --     2 C    0.948
    59   1 H    0.967 --     5 N    0.908
    60   1 H    0.993 --     6 C    0.938
    61   1 H    0.996 --     8 C    0.944
    62   1 H    0.964 --    10 N    0.918
    63   1 H    0.999 --    11 C    0.963
    64   1 H    0.997 --    11 C    0.970
    65   1 H    0.989 --    14 C    0.942
    66   1 H    0.999 --    16 C    0.965
    67   1 H    0.999 --    17 C    0.973
    68   1 H    0.967 --    18 N    0.924
    69   1 H    0.999 --    19 C    0.969
    70   1 H    0.997 --    19 C    0.960
    71   1 H    0.998 --    20 C    0.967
    72   1 H    0.998 --    21 C    0.972
    73   1 H    0.999 --    23 C    0.971
    74   1 H    0.999 --    24 C    0.969
    75   1 H    0.994 --    25 C    0.928
    76   1 H    0.998 --    27 C    0.983
    77   1 H    0.999 --    27 C    0.988
    78   1 H    0.997 --    27 C    0.989
    79   1 H    0.998 --    28 C    0.987
    80   1 H    0.998 --    28 C    0.987
    81   1 H    0.997 --    28 C    0.988
    82   1 H    0.953 --    29 N    0.898
    83   1 H    0.999 --    30 C    0.943
    84   1 H    0.998 --    30 C    0.959
    85   1 H    0.989 --    33 C    0.931
    86   1 H    1.000 --    35 C    0.968
    87   1 H    0.998 --    36 C    0.973
    88   1 H    0.956 --    37 N    0.904
    89   1 H    0.996 --    38 C    0.953
    90   1 H    0.995 --    38 C    0.970
    91   1 H    0.999 --    39 C    0.972
    92   1 H    0.998 --    40 C    0.966
    93   1 H    0.998 --    43 C    0.973
    94   1 H    0.997 --    46 C    0.968
    95   1 H    0.998 --    47 C    0.963
    96   1 H    0.974 --    48 N    0.945
    97   1 H    0.999 --    49 C    0.958
    98   1 H    0.998 --    50 C    0.977
    99   1 H    0.997 --    50 C    0.973
   100   1 H    0.999 --    50 C    0.986
   101   1 H    0.994 --    51 C    0.966
   102   1 H    0.998 --    51 C    0.978
   103   1 H    0.999 --    52 C    0.990
   104   1 H    0.997 --    52 C    0.986
   105   1 H    0.998 --    52 C    0.985
   106   1 H    0.995 --    53 C    0.958
   107   1 H    0.998 --    54 C    0.981
   108   1 H    0.997 --    54 C    0.971
   109   1 H    0.999 --    54 C    0.962
   110   1 H    0.999 --    55 C    0.973
   111   1 H    0.999 --    55 C    0.975
   112   1 H    0.998 --    56 C    0.983
   113   1 H    0.998 --    56 C    0.981
   114   1 H    0.998 --    56 C    0.982
 ---------------------------------------------------------------------------

Topologies differ in total number of bonds
Writing topology from bond orders to xtbtopo.mol

molecular dipole:
                 x           y           z       tot (Debye)
 q only:       -1.806       1.416      -3.791
   full:       -2.391       1.671      -3.789      12.153
molecular quadrupole (traceless):
                xx          xy          yy          xz          yz          zz
 q only:        7.294      11.466      15.404      12.385      -0.631     -22.698
  q+dip:       12.728      10.625      12.020      25.172      -4.022     -24.749
   full:        9.370      10.737      13.592      24.403      -3.315     -22.963


           -------------------------------------------------
          | TOTAL ENERGY             -167.230304579814 Eh   |
          | GRADIENT NORM               0.358038104483 Eh/α |
          | HOMO-LUMO GAP               2.537107309813 eV   |
           -------------------------------------------------

------------------------------------------------------------------------
 * finished run on 2026/05/23 at 12:25:40.510     
------------------------------------------------------------------------
 total:
 * wall-time:     0 d,  0 h,  0 min, 23.951 sec
 *  cpu-time:     0 d,  0 h,  0 min, 30.816 sec
 * ratio c/w:     1.287 speedup
 SCF:
 * wall-time:     0 d,  0 h,  0 min, 22.766 sec
 *  cpu-time:     0 d,  0 h,  0 min, 29.294 sec
 * ratio c/w:     1.287 speedup

normal termination of xtb
