      -----------------------------------------------------------      
     |                   =====================                   |     
     |                           x T B                           |     
     |                   =====================                   |     
     |                         S. Grimme                         |     
     |          Mulliken Center for Theoretical Chemistry        |     
     |                    University of Bonn                     |     
      -----------------------------------------------------------      

   * xtb version 6.7.1 (edcfbbe) compiled by 'albert@albert-system' on 2024-07-22

   xtb is free software: you can redistribute it and/or modify it under
   the terms of the GNU Lesser General Public License as published by
   the Free Software Foundation, either version 3 of the License, or
   (at your option) any later version.
   
   xtb is distributed in the hope that it will be useful,
   but WITHOUT ANY WARRANTY; without even the implied warranty of
   MERCHANTABILITY or FITNESS FOR A PARTICULAR PURPOSE.  See the
   GNU Lesser General Public License for more details.
   
   Cite this work as:
   * C. Bannwarth, E. Caldeweyher, S. Ehlert, A. Hansen, P. Pracht,
     J. Seibert, S. Spicher, S. Grimme, WIREs Comput. Mol. Sci., 2020, 11,
     e01493. DOI: 10.1002/wcms.1493
   
   for GFN2-xTB:
   * C. Bannwarth, S. Ehlert and S. Grimme., J. Chem. Theory Comput., 2019,
     15, 1652-1671. DOI: 10.1021/acs.jctc.8b01176
   for GFN1-xTB:
   * S. Grimme, C. Bannwarth, P. Shushkov, J. Chem. Theory Comput., 2017,
     13, 1989-2009. DOI: 10.1021/acs.jctc.7b00118
   for GFN0-xTB:
   * P. Pracht, E. Caldeweyher, S. Ehlert, S. Grimme, ChemRxiv, 2019, preprint.
     DOI: 10.26434/chemrxiv.8326202.v1
   for GFN-FF:
   * S. Spicher and S. Grimme, Angew. Chem. Int. Ed., 2020, 59, 15665-15673.
     DOI: 10.1002/anie.202004239
   
   for ALPB and GBSA implicit solvation:
   * S. Ehlert, M. Stahn, S. Spicher, S. Grimme, J. Chem. Theory Comput.,
     2021, 17, 4250-4261. DOI: 10.1021/acs.jctc.1c00471
   
   for ddCOSMO and CPCM-X implicit solvation:
   * M. Stahn, S. Ehlert, S. Grimme, J. Phys. Chem. A,
     2023, XX, XXXX-XXXX. DOI: 10.1021/acs.jpca.3c04382
   
   for DFT-D4:
   * E. Caldeweyher, C. Bannwarth and S. Grimme, J. Chem. Phys., 2017,
     147, 034112. DOI: 10.1063/1.4993215
   * E. Caldeweyher, S. Ehlert, A. Hansen, H. Neugebauer, S. Spicher,
     C. Bannwarth and S. Grimme, J. Chem. Phys., 2019, 150, 154122.
     DOI: 10.1063/1.5090222
   * E. Caldeweyher, J.-M. Mewes, S. Ehlert and S. Grimme, Phys. Chem. Chem. Phys.
     2020, 22, 8499-8512. DOI: 10.1039/D0CP00502A
   
   for sTDA-xTB:
   * S. Grimme and C. Bannwarth, J. Chem. Phys., 2016, 145, 054103.
     DOI: 10.1063/1.4959605
   
   in the mass-spec context:
   * V. Asgeirsson, C. Bauer and S. Grimme, Chem. Sci., 2017, 8, 4879.
     DOI: 10.1039/c7sc00601b
   * J. Koopman and S. Grimme, ACS Omega 2019, 4, 12, 15120-15133.
     DOI: 10.1021/acsomega.9b02011
   
   for metadynamics refer to:
   * S. Grimme, J. Chem. Theory Comput., 2019, 155, 2847-2862
     DOI: 10.1021/acs.jctc.9b00143
   
   for SPH calculations refer to:
   * S. Spicher and S. Grimme, J. Chem. Theory Comput., 2021, 17, 1701-1714
     DOI: 10.1021/acs.jctc.0c01306
   
   for ONIOM refer to:
   * C. Plett, A. Katbashev, S. Ehlert, S. Grimme, M. Bursch,
     Phys. Chem. Chem. Phys., 2023, 25, 17860-17868. DOI: 10.1039/D3CP02178E
   
   for DIPRO refer to:
   * J. Kohn, N. Gildemeister, S. Grimme, D. Fazzi, A. Hansen,
     J. Chem. Phys., 2023, just accepted.
   
   for PTB refer to:
   * S. Grimme, M. Mueller, A. Hansen, J. Chem. Phys., 2023, 158, 124111.
     DOI: 10.1063/5.0137838
   
   with help from (in alphabetical order)
   P. Atkinson, C. Bannwarth, F. Bohle, G. Brandenburg, E. Caldeweyher
   M. Checinski, S. Dohm, S. Ehlert, S. Ehrlich, I. Gerasimov, C. Hölzer
   A. Katbashev, J. Kohn, J. Koopman, C. Lavigne, S. Lehtola, F. März, M. Müller,
   F. Musil, H. Neugebauer, J. Pisarek, C. Plett, P. Pracht, F. Pultar,
   J. Seibert, P. Shushkov, S. Spicher, M. Stahn, M. Steiner, T. Strunk,
   J. Stückrath, T. Rose, and J. Unsleber
   
 * started run on 2026/05/23 at 12:26:54.805     
   ID    Z sym.   atoms
    1    7 N      1, 5, 10, 17, 27, 34, 39, 43, 54, 56, 57
    2    6 C      2, 3, 6-8, 11-14, 16, 18, 21-23, 28-31, 33, 35-38, 40,
                  44-48, 50-53, 55, 58
    3    8 O      4, 9, 15, 19, 20, 24-26, 32, 41, 49
    4   16 S      42
    5    1 H      59-117

           -------------------------------------------------
          |                Calculation Setup                |
           -------------------------------------------------

          program call               : /home/xchen/software/xtb-6.7.1/xtb-dist/bin/xtb /home/xchen/Test/benchmark/md_sampled/04_7_0231_n2/snap_0015.xyz --charge -2 --gfn 2 --norestart
          coordinate file            : /home/xchen/Test/benchmark/md_sampled/04_7_0231_n2/snap_0015.xyz
          omp threads                :                    48


           -------------------------------------------------
          |                 G F N 2 - x T B                 |
           -------------------------------------------------

        Reference                      10.1021/acs.jctc.8b01176
      * Hamiltonian:
        H0-scaling (s, p, d)           1.850000    2.230000    2.230000
        zeta-weighting                 0.500000
      * Dispersion:
        s8                             2.700000
        a1                             0.520000
        a2                             5.000000
        s9                             5.000000
      * Repulsion:
        kExp                           1.500000    1.000000
        rExp                           1.000000
      * Coulomb:
        alpha                          2.000000
        third order                    shell-resolved
        anisotropic                    true
        a3                             3.000000
        a5                             4.000000
        cn-shift                       1.200000
        cn-exp                         4.000000
        max-rad                        5.000000


          ...................................................
          :                      SETUP                      :
          :.................................................:
          :  # basis functions                 297          :
          :  # atomic orbitals                 296          :
          :  # shells                          176          :
          :  # electrons                       328          :
          :  max. iterations                   250          :
          :  Hamiltonian                  GFN2-xTB          :
          :  restarted?                      false          :
          :  GBSA solvation                  false          :
          :  PC potential                    false          :
          :  electronic temp.          300.0000000     K    :
          :  accuracy                    1.0000000          :
          :  -> integral cutoff          0.2500000E+02      :
          :  -> integral neglect         0.1000000E-07      :
          :  -> SCF convergence          0.1000000E-05 Eh   :
          :  -> wf. convergence          0.1000000E-03 e    :
          :  Broyden damping             0.4000000          :
          :  net charge                         -2          :
          :  unpaired electrons                  0          :
          ...................................................

 iter      E             dE          RMSdq      gap      omega  full diag
   1   -186.8257806 -0.186826E+03  0.432E+00    3.30       0.0  T
   2   -187.4221836 -0.596403E+00  0.222E+00    2.37       1.0  T
   3   -187.4561255 -0.339419E-01  0.125E+00    1.30       1.0  T
   4   -186.1110926  0.134503E+01  0.255E+00    0.24       1.0  T
   5   -187.4644227 -0.135333E+01  0.311E-01    0.84       1.0  T
   6   -187.4694461 -0.502344E-02  0.154E-01    0.73       1.0  T
   7   -187.4694941 -0.479844E-04  0.103E-01    0.82       1.0  T
   8   -187.4696668 -0.172721E-03  0.860E-02    0.81       1.0  T
   9   -187.4697334 -0.665269E-04  0.798E-02    0.78       1.0  T
  10   -187.4697857 -0.523358E-04  0.749E-02    0.73       1.0  T
  11   -187.4698278 -0.420963E-04  0.712E-02    0.70       1.0  T
  12   -187.4698908 -0.630202E-04  0.653E-02    0.65       1.0  T
  13   -187.4699462 -0.553818E-04  0.596E-02    0.59       1.0  T
  14   -187.4700674 -0.121243E-03  0.453E-02    0.46       1.0  T
  15   -187.4703273 -0.259803E-03  0.470E-03    0.25       2.0  T
  16   -187.4703259  0.135468E-05  0.480E-03    0.23       1.9  T
  17   -187.4702801  0.457797E-04  0.167E-02    0.28       1.0  T
  18   -187.4702846 -0.447549E-05  0.150E-02    0.22       1.0  T
  19   -187.4703109 -0.263033E-04  0.102E-02    0.27       1.0  T
  20   -187.4703306 -0.197212E-04  0.487E-04    0.24      19.0  T
  21   -187.4703305  0.109219E-06  0.893E-04    0.24      10.4  T
  22   -187.4703307 -0.150461E-06  0.175E-04    0.24      52.8  T

   *** convergence criteria satisfied after 22 iterations ***

         #    Occupation            Energy/Eh            Energy/eV
      -------------------------------------------------------------
         1        2.0000           -0.6015555             -16.3692
       ...           ...                  ...                  ...
       158        2.0000           -0.2246412              -6.1128
       159        2.0000           -0.1703940              -4.6367
       160        2.0000           -0.1608609              -4.3772
       161        2.0000           -0.1539978              -4.1905
       162        2.0000           -0.1522239              -4.1422
       163        2.0000           -0.1436981              -3.9102
       164        1.9819           -0.1299335              -3.5357 (HOMO)
       165        0.0181           -0.1210082              -3.2928 (LUMO)
       166        0.0000           -0.1137267              -3.0947
       167                         -0.0970370              -2.6405
       168                         -0.0905422              -2.4638
       169                         -0.0867528              -2.3607
       ...                                ...                  ...
       296                          0.7915954              21.5404
      -------------------------------------------------------------
                  HL-Gap            0.0089253 Eh            0.2429 eV
             Fermi-level           -0.1254711 Eh           -3.4142 eV

 SCC (total)                   0 d,  0 h,  0 min, 37.663 sec
 SCC setup                      ...        0 min,  0.026 sec (  0.070%)
 Dispersion                     ...        0 min,  0.115 sec (  0.306%)
 classical contributions        ...        0 min,  0.006 sec (  0.016%)
 integral evaluation            ...        0 min,  0.517 sec (  1.374%)
 iterations                     ...        0 min, 36.135 sec ( 95.943%)
 molecular gradient             ...        0 min,  0.839 sec (  2.228%)
 printout                       ...        0 min,  0.024 sec (  0.064%)

         :::::::::::::::::::::::::::::::::::::::::::::::::::::
         ::                     SUMMARY                     ::
         :::::::::::::::::::::::::::::::::::::::::::::::::::::
         :: total energy            -185.517699750312 Eh    ::
         :: gradient norm              0.425655230124 Eh/a0 ::
         :: HOMO-LUMO gap              0.242869845170 eV    ::
         ::.................................................::
         :: SCC energy              -187.464174305654 Eh    ::
         :: -> isotropic ES            0.765291441463 Eh    ::
         :: -> anisotropic ES          0.019107537144 Eh    ::
         :: -> anisotropic XC          0.062874150193 Eh    ::
         :: -> dispersion             -0.140436286837 Eh    ::
         :: repulsion energy           1.946474555342 Eh    ::
         :: add. restraining           0.000000000000 Eh    ::
         :: total charge              -2.000000000001 e     ::
         :::::::::::::::::::::::::::::::::::::::::::::::::::::

           -------------------------------------------------
          |                Property Printout                |
           -------------------------------------------------

    * Orbital Energies and Occupations

         #    Occupation            Energy/Eh            Energy/eV
      -------------------------------------------------------------
         1        2.0000           -0.6015555             -16.3692
       ...           ...                  ...                  ...
       152        2.0000           -0.2501780              -6.8077
       153        2.0000           -0.2440881              -6.6420
       154        2.0000           -0.2427911              -6.6067
       155        2.0000           -0.2391080              -6.5065
       156        2.0000           -0.2373273              -6.4580
       157        2.0000           -0.2308012              -6.2804
       158        2.0000           -0.2246412              -6.1128
       159        2.0000           -0.1703940              -4.6367
       160        2.0000           -0.1608609              -4.3772
       161        2.0000           -0.1539978              -4.1905
       162        2.0000           -0.1522239              -4.1422
       163        2.0000           -0.1436981              -3.9102
       164        1.9819           -0.1299335              -3.5357 (HOMO)
       165        0.0181           -0.1210082              -3.2928 (LUMO)
       166        0.0000           -0.1137267              -3.0947
       167                         -0.0970370              -2.6405
       168                         -0.0905422              -2.4638
       169                         -0.0867528              -2.3607
       170                         -0.0847163              -2.3052
       171                         -0.0791435              -2.1536
       172                         -0.0761213              -2.0714
       173                         -0.0739811              -2.0131
       174                         -0.0244503              -0.6653
       175                          0.0047971               0.1305
       ...                                ...                  ...
       296                          0.7915954              21.5404
      -------------------------------------------------------------
                  HL-Gap            0.0089253 Eh            0.2429 eV
             Fermi-level           -0.1254711 Eh           -3.4142 eV

     #   Z          covCN         q      C6AA      α(0)
     1   7 N        2.692    -0.169    24.668     7.376
     2   6 C        3.809     0.034    19.992     6.365
     3   6 C        2.771     0.279    22.279     7.730
     4   8 O        0.857    -0.438    22.447     6.352
     5   7 N        2.699    -0.160    24.466     7.346
     6   6 C        3.817     0.031    20.048     6.372
     7   6 C        2.810     0.280    22.260     7.730
     8   6 C        3.788     0.032    20.042     6.376
     9   8 O        0.862    -0.462    22.963     6.425
    10   7 N        2.721    -0.190    25.128     7.445
    11   6 C        3.786    -0.048    21.448     6.596
    12   6 C        2.755     0.260    22.625     7.789
    13   6 C        3.810    -0.073    21.881     6.658
    14   6 C        3.792     0.044    19.852     6.345
    15   8 O        0.856    -0.427    22.220     6.320
    16   6 C        2.702     0.346    21.126     7.523
    17   7 N        2.689    -0.173    24.751     7.389
    18   6 C        3.812    -0.073    21.893     6.660
    19   8 O        0.856    -0.637    27.041     6.972
    20   8 O        0.856    -0.578    25.580     6.781
    21   6 C        2.756     0.259    22.646     7.793
    22   6 C        2.686     0.327    21.444     7.578
    23   6 C        3.781     0.016    20.320     6.422
    24   8 O        0.859    -0.456    22.828     6.406
    25   8 O        0.855    -0.598    26.068     6.845
    26   8 O        0.855    -0.603    26.184     6.861
    27   7 N        2.693    -0.162    24.511     7.353
    28   6 C        3.769    -0.064    21.765     6.649
    29   6 C        2.766     0.279    22.281     7.730
    30   6 C        3.787    -0.044    21.379     6.586
    31   6 C        3.805     0.039    19.919     6.354
    32   8 O        0.861    -0.452    22.742     6.394
    33   6 C        3.776    -0.052    21.529     6.611
    34   7 N        2.696    -0.166    24.601     7.366
    35   6 C        3.806    -0.067    21.772     6.642
    36   6 C        3.733     0.034    20.086     6.397
    37   6 C        2.753     0.269    22.449     7.759
    38   6 C        3.784    -0.030    21.126     6.547
    39   7 N        2.625    -0.348    28.955     7.992
    40   6 C        3.805     0.017    20.281     6.411
    41   8 O        0.858    -0.464    23.001     6.430
    42  16 S        1.941    -0.221   150.490    20.647
    43   7 N        2.703    -0.199    25.313     7.472
    44   6 C        3.865    -0.027    21.014     6.519
    45   6 C        3.737    -0.034    21.264     6.580
    46   6 C        2.781     0.258    22.656     7.796
    47   6 C        3.729    -0.106    22.623     6.790
    48   6 C        3.798    -0.067    21.793     6.647
    49   8 O        0.861    -0.473    23.191     6.457
    50   6 C        3.723    -0.100    22.517     6.776
    51   6 C        3.805    -0.056    21.576     6.613
    52   6 C        3.800    -0.063    21.713     6.634
    53   6 C        3.756     0.024    20.224     6.412
    54   7 N        2.697    -0.232    26.077     7.584
    55   6 C        2.753     0.221    23.339     7.911
    56   7 N        1.782    -0.473    33.507     8.573
    57   7 N        2.654    -0.291    27.493     7.787
    58   6 C        3.759    -0.127    22.995     6.837
    59   1 H        0.860     0.175     1.244     1.747
    60   1 H        0.920     0.057     2.234     2.338
    61   1 H        0.860     0.198     1.118     1.657
    62   1 H        0.924     0.081     1.970     2.195
    63   1 H        0.922     0.058     2.223     2.332
    64   1 H        0.859     0.178     1.227     1.735
    65   1 H        0.903     0.041     2.434     2.441
    66   1 H        0.924     0.054     2.273     2.358
    67   1 H        0.927     0.033     2.543     2.494
    68   1 H        0.924    -0.001     3.074     2.742
    69   1 H        0.923     0.087     1.908     2.160
    70   1 H        0.861     0.203     1.093     1.638
    71   1 H        0.926     0.041     2.440     2.443
    72   1 H        0.917     0.036     2.510     2.478
    73   1 H        0.925     0.063     2.166     2.302
    74   1 H        0.857     0.195     1.132     1.667
    75   1 H        0.912     0.036     2.501     2.474
    76   1 H        0.909     0.064     2.161     2.300
    77   1 H        0.920     0.044     2.400     2.423
    78   1 H        0.919     0.024     2.677     2.559
    79   1 H        0.925     0.052     2.291     2.367
    80   1 H        0.902     0.045     2.385     2.416
    81   1 H        0.920     0.024     2.677     2.559
    82   1 H        0.857     0.180     1.217     1.728
    83   1 H        0.920     0.053     2.281     2.362
    84   1 H        0.923     0.071     2.077     2.254
    85   1 H        0.922    -0.003     3.117     2.761
    86   1 H        0.925     0.018     2.758     2.597
    87   1 H        0.928     0.058     2.223     2.331
    88   1 H        0.928     0.061     2.187     2.313
    89   1 H        0.857     0.164     1.313     1.795
    90   1 H        0.858     0.128     1.562     1.958
    91   1 H        0.924     0.097     1.809     2.103
    92   1 H        0.862     0.187     1.177     1.699
    93   1 H        0.926     0.064     2.154     2.295
    94   1 H        0.925     0.073     2.051     2.240
    95   1 H        0.926     0.044     2.400     2.423
    96   1 H        0.915     0.031     2.579     2.512
    97   1 H        0.903     0.027     2.640     2.542
    98   1 H        0.927     0.050     2.324     2.384
    99   1 H        0.919     0.031     2.573     2.509
   100   1 H        0.921     0.042     2.426     2.436
   101   1 H        0.924     0.038     2.481     2.463
   102   1 H        0.925     0.029     2.603     2.523
   103   1 H        0.906     0.026     2.642     2.543
   104   1 H        0.922     0.048     2.352     2.398
   105   1 H        0.909     0.037     2.490     2.469
   106   1 H        0.920     0.042     2.421     2.434
   107   1 H        0.921     0.054     2.271     2.357
   108   1 H        0.918     0.050     2.326     2.385
   109   1 H        0.918     0.022     2.705     2.572
   110   1 H        0.926     0.041     2.430     2.438
   111   1 H        0.860     0.166     1.297     1.784
   112   1 H        0.861     0.124     1.592     1.977
   113   1 H        0.860     0.168     1.282     1.774
   114   1 H        0.855     0.177     1.234     1.740
   115   1 H        0.925     0.088     1.896     2.153
   116   1 H        0.924     0.033     2.549     2.497
   117   1 H        0.929     0.051     2.308     2.375

 Mol. C6AA /au·bohr⁶  :     136453.338838
 Mol. C8AA /au·bohr⁸  :    3091682.591077
 Mol. α(0) /au        :        551.656727


Wiberg/Mayer (AO) data.
largest (>0.10) Wiberg bond orders for each atom

 ---------------------------------------------------------------------------
     #   Z sym  total        # sym  WBO       # sym  WBO       # sym  WBO
 ---------------------------------------------------------------------------
     1   7 N    3.413 --     7 C    1.228     2 C    1.001    59 H    0.931
                             9 O    0.169
     2   6 C    3.974 --     1 N    1.001    51 C    0.992    60 H    0.946
                             3 C    0.912
     3   6 C    3.948 --     4 O    1.682     5 N    1.259     2 C    0.912
     4   8 O    1.990 --     3 C    1.682     5 N    0.178
     5   7 N    3.438 --     3 C    1.259     6 C    1.001    61 H    0.919
                             4 O    0.178
     6   6 C    3.977 --     5 N    1.001    46 C    0.990    58 C    0.959
                            62 H    0.929
     7   6 C    3.935 --     9 O    1.648     1 N    1.228     8 C    0.956
     8   6 C    3.960 --    10 N    1.000     7 C    0.956    63 H    0.948
                            11 C    0.944
     9   8 O    1.969 --     7 C    1.648     1 N    0.169
    10   7 N    3.412 --    12 C    1.172     8 C    1.000    64 H    0.926
                            15 O    0.189
    11   6 C    3.980 --    13 C    1.006    66 H    0.975    65 H    0.954
                             8 C    0.944
    12   6 C    3.942 --    15 O    1.710    10 N    1.172    14 C    0.951
    13   6 C    3.978 --    11 C    1.006    67 H    0.975    68 H    0.966
                            16 C    0.934
    14   6 C    3.948 --    18 C    0.970    17 N    0.952    12 C    0.951
                            69 H    0.946
    15   8 O    2.021 --    12 C    1.710    10 N    0.189
    16   6 C    3.950 --    20 O    1.548    19 O    1.447    13 C    0.934
    17   7 N    3.482 --    21 C    1.322    14 C    0.952    70 H    0.924
                            24 O    0.205
    18   6 C    3.972 --    14 C    0.970    71 H    0.969    72 H    0.964
                            22 C    0.938
    19   8 O    1.742 --    16 C    1.447    20 O    0.235
    20   8 O    1.851 --    16 C    1.548    19 O    0.235
    21   6 C    3.952 --    24 O    1.645    17 N    1.322    23 C    0.919
    22   6 C    3.951 --    25 O    1.501    26 O    1.490    18 C    0.938
    23   6 C    3.957 --    27 N    0.972    28 C    0.971    73 H    0.954
                            21 C    0.919
    24   8 O    2.000 --    21 C    1.645    17 N    0.205
    25   8 O    1.809 --    22 C    1.501    26 O    0.242
    26   8 O    1.804 --    22 C    1.490    25 O    0.242
    27   7 N    3.492 --    29 C    1.330    23 C    0.972    74 H    0.904
                            32 O    0.207
    28   6 C    3.984 --    30 C    1.003    23 C    0.971    75 H    0.969
                            76 H    0.962
    29   6 C    3.960 --    32 O    1.641    27 N    1.330    31 C    0.921
    30   6 C    3.991 --    33 C    1.010    28 C    1.003    78 H    0.971
                            77 H    0.962
    31   6 C    3.961 --    35 C    1.001    34 N    0.962    79 H    0.950
                            29 C    0.921
    32   8 O    1.983 --    29 C    1.641    27 N    0.207
    33   6 C    3.991 --    30 C    1.010    36 C    1.007    81 H    0.973
                            80 H    0.968
    34   7 N    3.468 --    37 C    1.302    31 C    0.962    82 H    0.907
                            41 O    0.200
    35   6 C    3.987 --    31 C    1.001    38 C    0.994    84 H    0.963
                            83 H    0.960
    36   6 C    3.991 --    39 N    1.027    33 C    1.007    86 H    0.973
                            85 H    0.967
    37   6 C    3.955 --    41 O    1.633    34 N    1.302    40 C    0.947
    38   6 C    3.978 --    35 C    0.994    87 H    0.979    42 S    0.978
                            88 H    0.977
    39   7 N    2.999 --    36 C    1.027    90 H    0.969    89 H    0.943
    40   6 C    3.953 --    44 C    0.976    43 N    0.957    37 C    0.947
                            91 H    0.939
    41   8 O    1.952 --    37 C    1.633    34 N    0.200
    42  16 S    2.119 --    45 C    1.034    38 C    0.978
    43   7 N    3.427 --    46 C    1.261    40 C    0.957    92 H    0.925
                            49 O    0.180
    44   6 C    3.989 --    47 C    1.001    48 C    0.997    40 C    0.976
                            93 H    0.962
    45   6 C    3.976 --    42 S    1.034    96 H    0.979    95 H    0.974
                            94 H    0.966
    46   6 C    3.945 --    49 O    1.625    43 N    1.261     6 C    0.990
    47   6 C    3.991 --    44 C    1.001    98 H    0.987    97 H    0.984
                            99 H    0.981
    48   6 C    3.996 --    50 C    1.010    44 C    0.997   100 H    0.976
                           101 H    0.970
    49   8 O    1.931 --    46 C    1.625    43 N    0.180
    50   6 C    3.990 --    48 C    1.010   102 H    0.989   103 H    0.986
                           104 H    0.985
    51   6 C    3.991 --    52 C    1.011     2 C    0.992   105 H    0.962
                           106 H    0.956
    52   6 C    3.991 --    53 C    1.022    51 C    1.011   108 H    0.962
                           107 H    0.959
    53   6 C    3.971 --    52 C    1.022    54 N    0.978   110 H    0.964
                           109 H    0.948
    54   7 N    3.319 --    55 C    1.157    53 C    0.978   111 H    0.935
                            56 N    0.142
    55   6 C    3.956 --    56 N    1.599    57 N    1.174    54 N    1.157
    56   7 N    2.864 --    55 C    1.599   112 H    0.939    54 N    0.142
                            57 N    0.111
    57   7 N    3.249 --    55 C    1.174   114 H    0.947   113 H    0.943
                            56 N    0.111
    58   6 C    3.985 --   116 H    0.983   117 H    0.982   115 H    0.977
                             6 C    0.959
    59   1 H    0.969 --     1 N    0.931
    60   1 H    0.997 --     2 C    0.946
    61   1 H    0.961 --     5 N    0.919
    62   1 H    0.992 --     6 C    0.929
    63   1 H    0.996 --     8 C    0.948
    64   1 H    0.968 --    10 N    0.926
    65   1 H    0.998 --    11 C    0.954
    66   1 H    0.997 --    11 C    0.975
    67   1 H    0.999 --    13 C    0.975
    68   1 H    0.999 --    13 C    0.966
    69   1 H    0.992 --    14 C    0.946
    70   1 H    0.959 --    17 N    0.924
    71   1 H    0.998 --    18 C    0.969
    72   1 H    0.998 --    18 C    0.964
    73   1 H    0.996 --    23 C    0.954
    74   1 H    0.962 --    27 N    0.904
    75   1 H    0.998 --    28 C    0.969
    76   1 H    0.996 --    28 C    0.962
    77   1 H    0.998 --    30 C    0.962
    78   1 H    0.999 --    30 C    0.971
    79   1 H    0.997 --    31 C    0.950
    80   1 H    0.998 --    33 C    0.968
    81   1 H    0.999 --    33 C    0.973
    82   1 H    0.967 --    34 N    0.907
    83   1 H    0.996 --    35 C    0.960
    84   1 H    0.995 --    35 C    0.963
    85   1 H    1.000 --    36 C    0.967
    86   1 H    0.999 --    36 C    0.973
    87   1 H    0.997 --    38 C    0.979
    88   1 H    0.996 --    38 C    0.977
    89   1 H    0.973 --    39 N    0.943
    90   1 H    0.983 --    39 N    0.969
    91   1 H    0.990 --    40 C    0.939
    92   1 H    0.965 --    43 N    0.925
    93   1 H    0.995 --    44 C    0.962
    94   1 H    0.994 --    45 C    0.966
    95   1 H    0.998 --    45 C    0.974
    96   1 H    0.999 --    45 C    0.979
    97   1 H    0.999 --    47 C    0.984
    98   1 H    0.997 --    47 C    0.987
    99   1 H    0.999 --    47 C    0.981
   100   1 H    0.998 --    48 C    0.976
   101   1 H    0.999 --    48 C    0.970
   102   1 H    0.999 --    50 C    0.989
   103   1 H    0.999 --    50 C    0.986
   104   1 H    0.998 --    50 C    0.985
   105   1 H    0.999 --    51 C    0.962
   106   1 H    0.998 --    51 C    0.956
   107   1 H    0.997 --    52 C    0.959
   108   1 H    0.997 --    52 C    0.962
   109   1 H    1.000 --    53 C    0.948
   110   1 H    0.998 --    53 C    0.964
   111   1 H    0.972 --    54 N    0.935
   112   1 H    0.985 --    56 N    0.939
   113   1 H    0.972 --    57 N    0.943
   114   1 H    0.968 --    57 N    0.947
   115   1 H    0.992 --    58 C    0.977
   116   1 H    0.999 --    58 C    0.983
   117   1 H    0.997 --    58 C    0.982
 ---------------------------------------------------------------------------

Topologies differ in total number of bonds
Writing topology from bond orders to xtbtopo.mol

molecular dipole:
                 x           y           z       tot (Debye)
 q only:        2.099      15.114       0.282
   full:        2.344      14.444      -0.248      37.197
molecular quadrupole (traceless):
                xx          xy          yy          xz          yz          zz
 q only:       21.624     -14.121     -63.621      93.249     -87.685      41.997
  q+dip:        6.521      -8.750     -54.883      94.626     -93.613      48.362
   full:        6.552      -8.104     -53.257      93.655     -94.075      46.705


           -------------------------------------------------
          | TOTAL ENERGY             -185.517699750312 Eh   |
          | GRADIENT NORM               0.425655230124 Eh/α |
          | HOMO-LUMO GAP               0.242869845170 eV   |
           -------------------------------------------------

------------------------------------------------------------------------
 * finished run on 2026/05/23 at 12:27:33.737     
------------------------------------------------------------------------
 total:
 * wall-time:     0 d,  0 h,  0 min, 38.931 sec
 *  cpu-time:     0 d,  0 h,  0 min, 40.247 sec
 * ratio c/w:     1.034 speedup
 SCF:
 * wall-time:     0 d,  0 h,  0 min, 37.665 sec
 *  cpu-time:     0 d,  0 h,  0 min, 39.378 sec
 * ratio c/w:     1.045 speedup

normal termination of xtb
