      -----------------------------------------------------------      
     |                   =====================                   |     
     |                           x T B                           |     
     |                   =====================                   |     
     |                         S. Grimme                         |     
     |          Mulliken Center for Theoretical Chemistry        |     
     |                    University of Bonn                     |     
      -----------------------------------------------------------      

   * xtb version 6.7.1 (edcfbbe) compiled by 'albert@albert-system' on 2024-07-22

   xtb is free software: you can redistribute it and/or modify it under
   the terms of the GNU Lesser General Public License as published by
   the Free Software Foundation, either version 3 of the License, or
   (at your option) any later version.
   
   xtb is distributed in the hope that it will be useful,
   but WITHOUT ANY WARRANTY; without even the implied warranty of
   MERCHANTABILITY or FITNESS FOR A PARTICULAR PURPOSE.  See the
   GNU Lesser General Public License for more details.
   
   Cite this work as:
   * C. Bannwarth, E. Caldeweyher, S. Ehlert, A. Hansen, P. Pracht,
     J. Seibert, S. Spicher, S. Grimme, WIREs Comput. Mol. Sci., 2020, 11,
     e01493. DOI: 10.1002/wcms.1493
   
   for GFN2-xTB:
   * C. Bannwarth, S. Ehlert and S. Grimme., J. Chem. Theory Comput., 2019,
     15, 1652-1671. DOI: 10.1021/acs.jctc.8b01176
   for GFN1-xTB:
   * S. Grimme, C. Bannwarth, P. Shushkov, J. Chem. Theory Comput., 2017,
     13, 1989-2009. DOI: 10.1021/acs.jctc.7b00118
   for GFN0-xTB:
   * P. Pracht, E. Caldeweyher, S. Ehlert, S. Grimme, ChemRxiv, 2019, preprint.
     DOI: 10.26434/chemrxiv.8326202.v1
   for GFN-FF:
   * S. Spicher and S. Grimme, Angew. Chem. Int. Ed., 2020, 59, 15665-15673.
     DOI: 10.1002/anie.202004239
   
   for ALPB and GBSA implicit solvation:
   * S. Ehlert, M. Stahn, S. Spicher, S. Grimme, J. Chem. Theory Comput.,
     2021, 17, 4250-4261. DOI: 10.1021/acs.jctc.1c00471
   
   for ddCOSMO and CPCM-X implicit solvation:
   * M. Stahn, S. Ehlert, S. Grimme, J. Phys. Chem. A,
     2023, XX, XXXX-XXXX. DOI: 10.1021/acs.jpca.3c04382
   
   for DFT-D4:
   * E. Caldeweyher, C. Bannwarth and S. Grimme, J. Chem. Phys., 2017,
     147, 034112. DOI: 10.1063/1.4993215
   * E. Caldeweyher, S. Ehlert, A. Hansen, H. Neugebauer, S. Spicher,
     C. Bannwarth and S. Grimme, J. Chem. Phys., 2019, 150, 154122.
     DOI: 10.1063/1.5090222
   * E. Caldeweyher, J.-M. Mewes, S. Ehlert and S. Grimme, Phys. Chem. Chem. Phys.
     2020, 22, 8499-8512. DOI: 10.1039/D0CP00502A
   
   for sTDA-xTB:
   * S. Grimme and C. Bannwarth, J. Chem. Phys., 2016, 145, 054103.
     DOI: 10.1063/1.4959605
   
   in the mass-spec context:
   * V. Asgeirsson, C. Bauer and S. Grimme, Chem. Sci., 2017, 8, 4879.
     DOI: 10.1039/c7sc00601b
   * J. Koopman and S. Grimme, ACS Omega 2019, 4, 12, 15120-15133.
     DOI: 10.1021/acsomega.9b02011
   
   for metadynamics refer to:
   * S. Grimme, J. Chem. Theory Comput., 2019, 155, 2847-2862
     DOI: 10.1021/acs.jctc.9b00143
   
   for SPH calculations refer to:
   * S. Spicher and S. Grimme, J. Chem. Theory Comput., 2021, 17, 1701-1714
     DOI: 10.1021/acs.jctc.0c01306
   
   for ONIOM refer to:
   * C. Plett, A. Katbashev, S. Ehlert, S. Grimme, M. Bursch,
     Phys. Chem. Chem. Phys., 2023, 25, 17860-17868. DOI: 10.1039/D3CP02178E
   
   for DIPRO refer to:
   * J. Kohn, N. Gildemeister, S. Grimme, D. Fazzi, A. Hansen,
     J. Chem. Phys., 2023, just accepted.
   
   for PTB refer to:
   * S. Grimme, M. Mueller, A. Hansen, J. Chem. Phys., 2023, 158, 124111.
     DOI: 10.1063/5.0137838
   
   with help from (in alphabetical order)
   P. Atkinson, C. Bannwarth, F. Bohle, G. Brandenburg, E. Caldeweyher
   M. Checinski, S. Dohm, S. Ehlert, S. Ehrlich, I. Gerasimov, C. Hölzer
   A. Katbashev, J. Kohn, J. Koopman, C. Lavigne, S. Lehtola, F. März, M. Müller,
   F. Musil, H. Neugebauer, J. Pisarek, C. Plett, P. Pracht, F. Pultar,
   J. Seibert, P. Shushkov, S. Spicher, M. Stahn, M. Steiner, T. Strunk,
   J. Stückrath, T. Rose, and J. Unsleber
   
 * started run on 2026/05/23 at 12:59:36.897     
   ID    Z sym.   atoms
    1    7 N      1, 5, 10, 17, 27, 34, 39, 43, 54, 56, 57
    2    6 C      2, 3, 6-8, 11-14, 16, 18, 21-23, 28-31, 33, 35-38, 40,
                  44-48, 50-53, 55, 58
    3    8 O      4, 9, 15, 19, 20, 24-26, 32, 41, 49
    4   16 S      42
    5    1 H      59-117

           -------------------------------------------------
          |                Calculation Setup                |
           -------------------------------------------------

          program call               : /home/xchen/software/xtb-6.7.1/xtb-dist/bin/xtb /home/xchen/Test/benchmark/md_sampled/04_7_0231_n2/snap_0159.xyz --charge -2 --gfn 2 --norestart
          coordinate file            : /home/xchen/Test/benchmark/md_sampled/04_7_0231_n2/snap_0159.xyz
          omp threads                :                    48


           -------------------------------------------------
          |                 G F N 2 - x T B                 |
           -------------------------------------------------

        Reference                      10.1021/acs.jctc.8b01176
      * Hamiltonian:
        H0-scaling (s, p, d)           1.850000    2.230000    2.230000
        zeta-weighting                 0.500000
      * Dispersion:
        s8                             2.700000
        a1                             0.520000
        a2                             5.000000
        s9                             5.000000
      * Repulsion:
        kExp                           1.500000    1.000000
        rExp                           1.000000
      * Coulomb:
        alpha                          2.000000
        third order                    shell-resolved
        anisotropic                    true
        a3                             3.000000
        a5                             4.000000
        cn-shift                       1.200000
        cn-exp                         4.000000
        max-rad                        5.000000


          ...................................................
          :                      SETUP                      :
          :.................................................:
          :  # basis functions                 297          :
          :  # atomic orbitals                 296          :
          :  # shells                          176          :
          :  # electrons                       328          :
          :  max. iterations                   250          :
          :  Hamiltonian                  GFN2-xTB          :
          :  restarted?                      false          :
          :  GBSA solvation                  false          :
          :  PC potential                    false          :
          :  electronic temp.          300.0000000     K    :
          :  accuracy                    1.0000000          :
          :  -> integral cutoff          0.2500000E+02      :
          :  -> integral neglect         0.1000000E-07      :
          :  -> SCF convergence          0.1000000E-05 Eh   :
          :  -> wf. convergence          0.1000000E-03 e    :
          :  Broyden damping             0.4000000          :
          :  net charge                         -2          :
          :  unpaired electrons                  0          :
          ...................................................

 iter      E             dE          RMSdq      gap      omega  full diag
   1   -186.8856872 -0.186886E+03  0.423E+00    3.82       0.0  T
   2   -187.4343988 -0.548712E+00  0.225E+00    2.08       1.0  T
   3   -187.4657239 -0.313250E-01  0.122E+00    0.89       1.0  T
   4   -186.0859005  0.137982E+01  0.230E+00    0.10       1.0  T
   5   -187.4749234 -0.138902E+01  0.257E-01    0.37       1.0  T
   6   -187.4777927 -0.286928E-02  0.132E-01    0.27       1.0  T
   7   -187.4776221  0.170626E-03  0.901E-02    0.42       1.0  T
   8   -187.4778017 -0.179573E-03  0.725E-02    0.41       1.0  T
   9   -187.4778653 -0.636396E-04  0.665E-02    0.38       1.0  T
  10   -187.4779597 -0.943430E-04  0.610E-02    0.34       1.0  T
  11   -187.4780510 -0.913452E-04  0.562E-02    0.32       1.0  T
  12   -187.4781824 -0.131373E-03  0.497E-02    0.29       1.0  T
  13   -187.4782659 -0.835713E-04  0.454E-02    0.27       1.0  T
  14   -187.4784368 -0.170816E-03  0.358E-02    0.25       1.0  T
  15   -187.4787155 -0.278781E-03  0.108E-02    0.18       1.0  T
  16   -187.4787433 -0.277800E-04  0.320E-03    0.20       2.9  T
  17   -187.4787307  0.126427E-04  0.761E-03    0.19       1.2  T
  18   -187.4787458 -0.150740E-04  0.800E-04    0.19      11.6  T
  19   -187.4787421  0.364062E-05  0.384E-03    0.19       2.4  T
  20   -187.4787459 -0.379706E-05  0.641E-05    0.19     144.3  T
  21   -187.4787457  0.165111E-06  0.801E-04    0.19      11.5  T
  22   -187.4787459 -0.140025E-06  0.315E-04    0.19      29.4  T

   *** convergence criteria satisfied after 22 iterations ***

         #    Occupation            Energy/Eh            Energy/eV
      -------------------------------------------------------------
         1        2.0000           -0.5976690             -16.2634
       ...           ...                  ...                  ...
       158        2.0000           -0.2273161              -6.1856
       159        2.0000           -0.2244382              -6.1073
       160        2.0000           -0.1947833              -5.3003
       161        2.0000           -0.1822123              -4.9582
       162        2.0000           -0.1565974              -4.2612
       163        2.0000           -0.1462816              -3.9805
       164        1.9533           -0.1239592              -3.3731 (HOMO)
       165        0.0458           -0.1168462              -3.1795 (LUMO)
       166        0.0010           -0.1131742              -3.0796
       167                         -0.0966389              -2.6297
       168                         -0.0862550              -2.3471
       169                         -0.0789679              -2.1488
       ...                                ...                  ...
       296                          0.9283421              25.2615
      -------------------------------------------------------------
                  HL-Gap            0.0071129 Eh            0.1936 eV
             Fermi-level           -0.1204130 Eh           -3.2766 eV

 SCC (total)                   0 d,  0 h,  0 min, 18.615 sec
 SCC setup                      ...        0 min,  0.010 sec (  0.055%)
 Dispersion                     ...        0 min,  0.053 sec (  0.287%)
 classical contributions        ...        0 min,  0.003 sec (  0.015%)
 integral evaluation            ...        0 min,  0.249 sec (  1.338%)
 iterations                     ...        0 min, 17.536 sec ( 94.205%)
 molecular gradient             ...        0 min,  0.738 sec (  3.962%)
 printout                       ...        0 min,  0.026 sec (  0.137%)

         :::::::::::::::::::::::::::::::::::::::::::::::::::::
         ::                     SUMMARY                     ::
         :::::::::::::::::::::::::::::::::::::::::::::::::::::
         :: total energy            -185.506775238923 Eh    ::
         :: gradient norm              0.397037894163 Eh/a0 ::
         :: HOMO-LUMO gap              0.193552809840 eV    ::
         ::.................................................::
         :: SCC energy              -187.472529045370 Eh    ::
         :: -> isotropic ES            0.716828898595 Eh    ::
         :: -> anisotropic ES          0.013892830075 Eh    ::
         :: -> anisotropic XC          0.064391370847 Eh    ::
         :: -> dispersion             -0.135737621346 Eh    ::
         :: repulsion energy           1.965753806446 Eh    ::
         :: add. restraining           0.000000000000 Eh    ::
         :: total charge              -2.000000000002 e     ::
         :::::::::::::::::::::::::::::::::::::::::::::::::::::

           -------------------------------------------------
          |                Property Printout                |
           -------------------------------------------------

    * Orbital Energies and Occupations

         #    Occupation            Energy/Eh            Energy/eV
      -------------------------------------------------------------
         1        2.0000           -0.5976690             -16.2634
       ...           ...                  ...                  ...
       152        2.0000           -0.2456813              -6.6853
       153        2.0000           -0.2455409              -6.6815
       154        2.0000           -0.2427170              -6.6047
       155        2.0000           -0.2359377              -6.4202
       156        2.0000           -0.2329220              -6.3381
       157        2.0000           -0.2311737              -6.2906
       158        2.0000           -0.2273161              -6.1856
       159        2.0000           -0.2244382              -6.1073
       160        2.0000           -0.1947833              -5.3003
       161        2.0000           -0.1822123              -4.9582
       162        2.0000           -0.1565974              -4.2612
       163        2.0000           -0.1462816              -3.9805
       164        1.9533           -0.1239592              -3.3731 (HOMO)
       165        0.0458           -0.1168462              -3.1795 (LUMO)
       166        0.0010           -0.1131742              -3.0796
       167                         -0.0966389              -2.6297
       168                         -0.0862550              -2.3471
       169                         -0.0789679              -2.1488
       170                         -0.0659283              -1.7940
       171                         -0.0640287              -1.7423
       172                         -0.0566311              -1.5410
       173                         -0.0531620              -1.4466
       174                         -0.0338140              -0.9201
       175                         -0.0089452              -0.2434
       ...                                ...                  ...
       296                          0.9283421              25.2615
      -------------------------------------------------------------
                  HL-Gap            0.0071129 Eh            0.1936 eV
             Fermi-level           -0.1204130 Eh           -3.2766 eV

     #   Z          covCN         q      C6AA      α(0)
     1   7 N        2.689    -0.196    25.250     7.463
     2   6 C        3.775     0.033    20.043     6.379
     3   6 C        2.750     0.290    22.092     7.696
     4   8 O        0.860    -0.456    22.836     6.407
     5   7 N        2.696    -0.154    24.335     7.327
     6   6 C        3.767     0.020    20.279     6.418
     7   6 C        2.752     0.276    22.329     7.738
     8   6 C        3.785     0.015    20.347     6.425
     9   8 O        0.859    -0.457    22.858     6.410
    10   7 N        2.684    -0.161    24.480     7.348
    11   6 C        3.795    -0.050    21.476     6.599
    12   6 C        2.740     0.269    22.449     7.758
    13   6 C        3.788    -0.063    21.721     6.638
    14   6 C        3.803     0.047    19.779     6.332
    15   8 O        0.858    -0.500    23.788     6.539
    16   6 C        2.693     0.363    20.846     7.472
    17   7 N        2.602    -0.333    28.578     7.939
    18   6 C        3.824    -0.106    22.504     6.751
    19   8 O        0.864    -0.647    27.307     7.006
    20   8 O        0.856    -0.569    25.361     6.752
    21   6 C        2.809     0.271    22.421     7.758
    22   6 C        2.687     0.373    20.683     7.443
    23   6 C        3.824     0.017    20.280     6.408
    24   8 O        0.860    -0.518    24.195     6.595
    25   8 O        0.857    -0.493    23.631     6.517
    26   8 O        1.092    -0.536    24.447     6.636
    27   7 N        2.724    -0.194    25.210     7.457
    28   6 C        3.794    -0.056    21.580     6.615
    29   6 C        2.826     0.273    22.395     7.754
    30   6 C        3.787    -0.066    21.780     6.647
    31   6 C        3.801     0.030    20.076     6.379
    32   8 O        0.859    -0.426    22.209     6.318
    33   6 C        3.789    -0.070    21.846     6.657
    34   7 N        2.723    -0.178    24.845     7.403
    35   6 C        3.795    -0.060    21.660     6.627
    36   6 C        3.727     0.018    20.378     6.445
    37   6 C        2.743     0.263    22.556     7.776
    38   6 C        3.791    -0.008    20.731     6.484
    39   7 N        2.624    -0.345    28.893     7.983
    40   6 C        3.799     0.019    20.264     6.410
    41   8 O        0.857    -0.457    22.858     6.410
    42  16 S        1.959    -0.205   149.795    20.599
    43   7 N        2.683    -0.196    25.263     7.465
    44   6 C        3.841    -0.027    21.030     6.524
    45   6 C        3.740    -0.049    21.538     6.622
    46   6 C        2.722     0.238    23.029     7.856
    47   6 C        3.742    -0.110    22.687     6.795
    48   6 C        3.772    -0.052    21.544     6.614
    49   8 O        0.857    -0.403    21.747     6.252
    50   6 C        3.747    -0.101    22.488     6.764
    51   6 C        3.790    -0.059    21.645     6.626
    52   6 C        3.802    -0.067    21.791     6.646
    53   6 C        3.718     0.015    20.446     6.459
    54   7 N        2.712    -0.207    25.495     7.499
    55   6 C        2.736     0.219    23.372     7.915
    56   7 N        1.778    -0.472    33.452     8.565
    57   7 N        2.665    -0.315    28.093     7.872
    58   6 C        3.753    -0.109    22.649     6.786
    59   1 H        0.851     0.218     1.022     1.584
    60   1 H        0.903     0.040     2.456     2.452
    61   1 H        0.859     0.192     1.149     1.679
    62   1 H        0.925     0.075     2.034     2.230
    63   1 H        0.916     0.066     2.131     2.283
    64   1 H        0.857     0.187     1.175     1.698
    65   1 H        0.913     0.072     2.067     2.249
    66   1 H        0.928     0.065     2.141     2.288
    67   1 H        0.893     0.016     2.801     2.619
    68   1 H        0.925    -0.001     3.080     2.745
    69   1 H        0.922     0.037     2.484     2.465
    70   1 H        1.000     0.293     0.726     1.331
    71   1 H        0.925     0.045     2.387     2.416
    72   1 H        0.928     0.044     2.394     2.420
    73   1 H        0.927     0.071     2.077     2.254
    74   1 H        0.858     0.209     1.062     1.614
    75   1 H        0.911     0.018     2.764     2.600
    76   1 H        0.923     0.028     2.620     2.531
    77   1 H        0.920     0.047     2.355     2.400
    78   1 H        0.923     0.028     2.621     2.532
    79   1 H        0.926     0.049     2.334     2.389
    80   1 H        0.928     0.038     2.474     2.459
    81   1 H        0.920     0.009     2.906     2.666
    82   1 H        0.859     0.179     1.221     1.731
    83   1 H        0.912     0.057     2.236     2.339
    84   1 H        0.909     0.073     2.057     2.243
    85   1 H        0.928     0.051     2.312     2.378
    86   1 H        0.925     0.022     2.699     2.569
    87   1 H        0.926     0.051     2.313     2.378
    88   1 H        0.921     0.039     2.468     2.457
    89   1 H        0.858     0.176     1.236     1.742
    90   1 H        0.860     0.124     1.596     1.979
    91   1 H        0.923     0.064     2.154     2.295
    92   1 H        0.861     0.186     1.181     1.703
    93   1 H        0.920     0.043     2.415     2.431
    94   1 H        0.930     0.066     2.124     2.279
    95   1 H        0.928     0.050     2.325     2.384
    96   1 H        0.912     0.030     2.590     2.517
    97   1 H        0.925     0.049     2.328     2.386
    98   1 H        0.921     0.038     2.474     2.460
    99   1 H        0.919     0.042     2.425     2.435
   100   1 H        0.921     0.030     2.583     2.513
   101   1 H        0.902     0.028     2.619     2.532
   102   1 H        0.924     0.035     2.512     2.478
   103   1 H        0.927     0.047     2.355     2.400
   104   1 H        0.920     0.034     2.528     2.487
   105   1 H        0.907     0.071     2.081     2.257
   106   1 H        0.923     0.046     2.375     2.410
   107   1 H        0.926     0.053     2.277     2.360
   108   1 H        0.918     0.058     2.223     2.332
   109   1 H        0.911     0.038     2.474     2.460
   110   1 H        0.917     0.030     2.586     2.515
   111   1 H        0.861     0.177     1.233     1.740
   112   1 H        0.858     0.099     1.804     2.104
   113   1 H        0.861     0.169     1.281     1.773
   114   1 H        0.861     0.183     1.198     1.715
   115   1 H        0.919     0.085     1.926     2.171
   116   1 H        0.926     0.026     2.646     2.544
   117   1 H        0.922     0.033     2.549     2.497

 Mol. C6AA /au·bohr⁶  :     136553.208867
 Mol. C8AA /au·bohr⁸  :    3094181.268673
 Mol. α(0) /au        :        551.876265


Wiberg/Mayer (AO) data.
largest (>0.10) Wiberg bond orders for each atom

 ---------------------------------------------------------------------------
     #   Z sym  total        # sym  WBO       # sym  WBO       # sym  WBO
 ---------------------------------------------------------------------------
     1   7 N    3.448 --     7 C    1.290     2 C    0.988    59 H    0.862
                             9 O    0.199
     2   6 C    3.971 --     1 N    0.988    51 C    0.978     3 C    0.942
                            60 H    0.940
     3   6 C    3.951 --     4 O    1.656     5 N    1.271     2 C    0.942
     4   8 O    1.963 --     3 C    1.656     5 N    0.177
     5   7 N    3.431 --     3 C    1.271     6 C    0.991    61 H    0.920
                             4 O    0.177
     6   6 C    3.967 --    58 C    1.020     5 N    0.991    62 H    0.944
                            46 C    0.879
     7   6 C    3.951 --     9 O    1.644     1 N    1.290     8 C    0.936
     8   6 C    3.934 --    11 C    0.988    63 H    0.937     7 C    0.936
                            10 N    0.929
     9   8 O    1.988 --     7 C    1.644     1 N    0.199
    10   7 N    3.503 --    12 C    1.380     8 C    0.929    64 H    0.912
                            15 O    0.188
    11   6 C    3.977 --    13 C    0.997     8 C    0.988    66 H    0.971
                            65 H    0.962
    12   6 C    3.942 --    15 O    1.553    10 N    1.380    14 C    0.911
    13   6 C    3.965 --    11 C    0.997    68 H    0.975    67 H    0.954
                            16 C    0.937
    14   6 C    3.975 --    18 C    0.995    17 N    0.980    69 H    0.955
                            12 C    0.911
    15   8 O    1.944 --    12 C    1.553    10 N    0.188
    16   6 C    3.946 --    20 O    1.567    19 O    1.417    13 C    0.937
    17   7 N    3.266 --    21 C    1.355    14 C    0.980    70 H    0.536
                            24 O    0.189
    18   6 C    3.973 --    14 C    0.995    72 H    0.968    71 H    0.939
                            22 C    0.922
    19   8 O    1.717 --    16 C    1.417    20 O    0.226
    20   8 O    1.867 --    16 C    1.567    19 O    0.226
    21   6 C    3.956 --    24 O    1.577    17 N    1.355    23 C    0.930
    22   6 C    3.940 --    25 O    1.658    26 O    1.312    18 C    0.922
    23   6 C    3.957 --    27 N    0.991    73 H    0.957    28 C    0.950
                            21 C    0.930
    24   8 O    1.955 --    21 C    1.577    17 N    0.189
    25   8 O    1.965 --    22 C    1.658    26 O    0.195
    26   8 O    2.031 --    22 C    1.312    70 H    0.343    25 O    0.195
    27   7 N    3.435 --    29 C    1.269    23 C    0.991    74 H    0.882
                            32 O    0.196
    28   6 C    3.992 --    30 C    1.009    75 H    0.975    76 H    0.974
                            23 C    0.950
    29   6 C    3.956 --    32 O    1.689    27 N    1.269    31 C    0.921
    30   6 C    3.989 --    28 C    1.009    33 C    0.995    78 H    0.983
                            77 H    0.961
    31   6 C    3.960 --    35 C    1.007    34 N    0.951    79 H    0.939
                            29 C    0.921
    32   8 O    2.026 --    29 C    1.689    27 N    0.196
    33   6 C    3.986 --    30 C    0.995    80 H    0.978    81 H    0.977
                            36 C    0.973
    34   7 N    3.448 --    37 C    1.279    31 C    0.951    82 H    0.924
                            41 O    0.196
    35   6 C    3.987 --    31 C    1.007    38 C    1.005    83 H    0.961
                            84 H    0.956
    36   6 C    3.986 --    39 N    1.040    85 H    0.977    86 H    0.976
                            33 C    0.973
    37   6 C    3.929 --    41 O    1.638    34 N    1.279    40 C    0.933
    38   6 C    3.977 --    35 C    1.005    42 S    0.990    88 H    0.975
                            87 H    0.973
    39   7 N    3.023 --    36 C    1.040    90 H    0.973    89 H    0.949
    40   6 C    3.964 --    43 N    1.000    44 C    0.953    91 H    0.944
                            37 C    0.933
    41   8 O    1.956 --    37 C    1.638    34 N    0.196
    42  16 S    2.093 --    45 C    1.016    38 C    0.990
    43   7 N    3.394 --    46 C    1.204    40 C    1.000    92 H    0.925
                            49 O    0.181
    44   6 C    3.985 --    47 C    1.005    48 C    0.992    93 H    0.971
                            40 C    0.953
    45   6 C    3.972 --    42 S    1.016    94 H    0.979    96 H    0.977
                            95 H    0.969
    46   6 C    3.915 --    49 O    1.737    43 N    1.204     6 C    0.879
    47   6 C    3.991 --    44 C    1.005    99 H    0.988    97 H    0.980
                            98 H    0.978
    48   6 C    3.991 --    50 C    1.020    44 C    0.992   101 H    0.971
                           100 H    0.969
    49   8 O    2.040 --    46 C    1.737    43 N    0.181
    50   6 C    3.994 --    48 C    1.020   104 H    0.986   103 H    0.985
                           102 H    0.981
    51   6 C    3.987 --    52 C    1.012     2 C    0.978   106 H    0.971
                           105 H    0.965
    52   6 C    3.988 --    51 C    1.012    53 C    1.002   108 H    0.970
                           107 H    0.968
    53   6 C    3.970 --    52 C    1.002    54 N    0.991   110 H    0.968
                           109 H    0.965
    54   7 N    3.386 --    55 C    1.214    53 C    0.991   111 H    0.931
                            56 N    0.166
    55   6 C    3.958 --    56 N    1.594    54 N    1.214    57 N    1.121
    56   7 N    2.871 --    55 C    1.594   112 H    0.966    54 N    0.166
    57   7 N    3.185 --    55 C    1.121   114 H    0.949   113 H    0.946
    58   6 C    3.992 --     6 C    1.020   117 H    0.981   116 H    0.979
                           115 H    0.970
    59   1 H    0.952 --     1 N    0.862
    60   1 H    0.998 --     2 C    0.940
    61   1 H    0.963 --     5 N    0.920
    62   1 H    0.994 --     6 C    0.944
    63   1 H    0.995 --     8 C    0.937
    64   1 H    0.965 --    10 N    0.912
    65   1 H    0.995 --    11 C    0.962
    66   1 H    0.995 --    11 C    0.971
    67   1 H    0.999 --    13 C    0.954
    68   1 H    0.999 --    13 C    0.975
    69   1 H    0.998 --    14 C    0.955
    70   1 H    0.914 --    17 N    0.536    26 O    0.343
    71   1 H    0.998 --    18 C    0.939
    72   1 H    0.997 --    18 C    0.968
    73   1 H    0.995 --    23 C    0.957
    74   1 H    0.956 --    27 N    0.882
    75   1 H    0.999 --    28 C    0.975
    76   1 H    0.999 --    28 C    0.974
    77   1 H    0.998 --    30 C    0.961
    78   1 H    0.999 --    30 C    0.983
    79   1 H    0.997 --    31 C    0.939
    80   1 H    0.999 --    33 C    0.978
    81   1 H    1.000 --    33 C    0.977
    82   1 H    0.968 --    34 N    0.924
    83   1 H    0.996 --    35 C    0.961
    84   1 H    0.995 --    35 C    0.956
    85   1 H    0.997 --    36 C    0.977
    86   1 H    0.999 --    36 C    0.976
    87   1 H    0.997 --    38 C    0.973
    88   1 H    0.998 --    38 C    0.975
    89   1 H    0.969 --    39 N    0.949
    90   1 H    0.985 --    39 N    0.973
    91   1 H    0.995 --    40 C    0.944
    92   1 H    0.965 --    43 N    0.925
    93   1 H    0.998 --    44 C    0.971
    94   1 H    0.995 --    45 C    0.979
    95   1 H    0.998 --    45 C    0.969
    96   1 H    0.999 --    45 C    0.977
    97   1 H    0.997 --    47 C    0.980
    98   1 H    0.998 --    47 C    0.978
    99   1 H    0.998 --    47 C    0.988
   100   1 H    0.999 --    48 C    0.969
   101   1 H    0.999 --    48 C    0.971
   102   1 H    0.999 --    50 C    0.981
   103   1 H    0.998 --    50 C    0.985
   104   1 H    0.999 --    50 C    0.986
   105   1 H    0.995 --    51 C    0.965
   106   1 H    0.997 --    51 C    0.971
   107   1 H    0.997 --    52 C    0.968
   108   1 H    0.996 --    52 C    0.970
   109   1 H    0.999 --    53 C    0.965
   110   1 H    0.999 --    53 C    0.968
   111   1 H    0.969 --    54 N    0.931
   112   1 H    0.990 --    56 N    0.966
   113   1 H    0.972 --    57 N    0.946
   114   1 H    0.966 --    57 N    0.949
   115   1 H    0.992 --    58 C    0.970
   116   1 H    0.999 --    58 C    0.979
   117   1 H    0.999 --    58 C    0.981
 ---------------------------------------------------------------------------

Topologies differ in total number of bonds
Writing topology from bond orders to xtbtopo.mol

molecular dipole:
                 x           y           z       tot (Debye)
 q only:       -0.095      13.476       1.413
   full:        0.090      13.707       1.736      35.120
molecular quadrupole (traceless):
                xx          xy          yy          xz          yz          zz
 q only:       -3.604      25.894     -93.380      41.722     -99.368      96.984
  q+dip:      -12.425      37.423     -96.611      36.446    -104.369     109.036
   full:      -12.868      37.431     -96.135      35.952    -105.109     109.003


           -------------------------------------------------
          | TOTAL ENERGY             -185.506775238923 Eh   |
          | GRADIENT NORM               0.397037894163 Eh/α |
          | HOMO-LUMO GAP               0.193552809840 eV   |
           -------------------------------------------------

------------------------------------------------------------------------
 * finished run on 2026/05/23 at 12:59:56.102     
------------------------------------------------------------------------
 total:
 * wall-time:     0 d,  0 h,  0 min, 19.204 sec
 *  cpu-time:     0 d,  0 h,  0 min, 49.250 sec
 * ratio c/w:     2.565 speedup
 SCF:
 * wall-time:     0 d,  0 h,  0 min, 18.616 sec
 *  cpu-time:     0 d,  0 h,  0 min, 48.045 sec
 * ratio c/w:     2.581 speedup

normal termination of xtb
