      -----------------------------------------------------------      
     |                   =====================                   |     
     |                           x T B                           |     
     |                   =====================                   |     
     |                         S. Grimme                         |     
     |          Mulliken Center for Theoretical Chemistry        |     
     |                    University of Bonn                     |     
      -----------------------------------------------------------      

   * xtb version 6.7.1 (26dd68d) compiled by 'froitzheim@fs7' on 2026-05-14

   xtb is free software: you can redistribute it and/or modify it under
   the terms of the GNU Lesser General Public License as published by
   the Free Software Foundation, either version 3 of the License, or
   (at your option) any later version.
   
   xtb is distributed in the hope that it will be useful,
   but WITHOUT ANY WARRANTY; without even the implied warranty of
   MERCHANTABILITY or FITNESS FOR A PARTICULAR PURPOSE.  See the
   GNU Lesser General Public License for more details.
   
   Cite this work as:
   * C. Bannwarth, E. Caldeweyher, S. Ehlert, A. Hansen, P. Pracht,
     J. Seibert, S. Spicher, S. Grimme, WIREs Comput. Mol. Sci., 2020, 11,
     e01493. DOI: 10.1002/wcms.1493
   
   for g-xTB:
   * T. Froitzheim, M. Müller, A. Hansen, S. Grimme, ChemRxiv, 2025, preprint.
     DOI: 10.26434/chemrxiv-2025-bjxv
   for GFN2-xTB:
   * C. Bannwarth, S. Ehlert and S. Grimme., J. Chem. Theory Comput., 2019,
     15, 1652-1671. DOI: 10.1021/acs.jctc.8b01176
   for GFN1-xTB:
   * S. Grimme, C. Bannwarth, P. Shushkov, J. Chem. Theory Comput., 2017,
     13, 1989-2009. DOI: 10.1021/acs.jctc.7b00118
   for GFN0-xTB:
   * P. Pracht, E. Caldeweyher, S. Ehlert, S. Grimme, ChemRxiv, 2019, preprint.
     DOI: 10.26434/chemrxiv.8326202.v1
   for GFN-FF:
   * S. Spicher and S. Grimme, Angew. Chem. Int. Ed., 2020, 59, 15665-15673.
     DOI: 10.1002/anie.202004239
   
   for ALPB and GBSA implicit solvation:
   * S. Ehlert, M. Stahn, S. Spicher, S. Grimme, J. Chem. Theory Comput.,
     2021, 17, 4250-4261. DOI: 10.1021/acs.jctc.1c00471
   
   for ddCOSMO and CPCM-X implicit solvation:
   * M. Stahn, S. Ehlert, S. Grimme, J. Phys. Chem. A,
     2023, XX, XXXX-XXXX. DOI: 10.1021/acs.jpca.3c04382
   
   for DFT-D4:
   * E. Caldeweyher, C. Bannwarth and S. Grimme, J. Chem. Phys., 2017,
     147, 034112. DOI: 10.1063/1.4993215
   * E. Caldeweyher, S. Ehlert, A. Hansen, H. Neugebauer, S. Spicher,
     C. Bannwarth and S. Grimme, J. Chem. Phys., 2019, 150, 154122.
     DOI: 10.1063/1.5090222
   * E. Caldeweyher, J.-M. Mewes, S. Ehlert and S. Grimme, Phys. Chem. Chem. Phys.
     2020, 22, 8499-8512. DOI: 10.1039/D0CP00502A
   
   for sTDA-xTB:
   * S. Grimme and C. Bannwarth, J. Chem. Phys., 2016, 145, 054103.
     DOI: 10.1063/1.4959605
   
   in the mass-spec context:
   * V. Asgeirsson, C. Bauer and S. Grimme, Chem. Sci., 2017, 8, 4879.
     DOI: 10.1039/c7sc00601b
   * J. Koopman and S. Grimme, ACS Omega 2019, 4, 12, 15120-15133.
     DOI: 10.1021/acsomega.9b02011
   
   for metadynamics refer to:
   * S. Grimme, J. Chem. Theory Comput., 2019, 155, 2847-2862
     DOI: 10.1021/acs.jctc.9b00143
   
   for SPH calculations refer to:
   * S. Spicher and S. Grimme, J. Chem. Theory Comput., 2021, 17, 1701-1714
     DOI: 10.1021/acs.jctc.0c01306
   
   for ONIOM refer to:
   * C. Plett, A. Katbashev, S. Ehlert, S. Grimme, M. Bursch,
     Phys. Chem. Chem. Phys., 2023, 25, 17860-17868. DOI: 10.1039/D3CP02178E
   
   for DIPRO refer to:
   * J. Kohn, N. Gildemeister, S. Grimme, D. Fazzi, A. Hansen,
     J. Chem. Phys. 159, 144106 (2023). DOI: 10.1063/5.0167484
   
   for PTB refer to:
   * S. Grimme, M. Mueller, A. Hansen, J. Chem. Phys., 2023, 158, 124111.
     DOI: 10.1063/5.0137838
   
   with help from (in alphabetical order)
   P. Atkinson, C. Bannwarth, F. Bohle, G. Brandenburg, E. Caldeweyher,
   M. Checinski, S. Dohm, S. Ehlert, S. Ehrlich, M. Friede, T. Froitzheim,
   I. Gerasimov, C. Hölzer, A. Katbashev, J. Kohn, J. Koopman, C. Lavigne,
   S. Lehtola, F. März, M. Müller, F. Musil, H. Neugebauer, J. Pisarek,
   C. Plett, P. Pracht, F. Pultar, J. Seibert, P. Shushkov, S. Spicher,
   M. Stahn, M. Steiner, T. Strunk, J. Stückrath, T. Rose, and J. Unsleber
   
 * started run on 2026/05/23 at 12:59:56.900     
   ID    Z sym.   atoms
    1    7 N      1, 5, 10, 17, 27, 34, 39, 43, 54, 56, 57
    2    6 C      2, 3, 6-8, 11-14, 16, 18, 21-23, 28-31, 33, 35-38, 40,
                  44-48, 50-53, 55, 58
    3    8 O      4, 9, 15, 19, 20, 24-26, 32, 41, 49
    4   16 S      42
    5    1 H      59-117

           -------------------------------------------------
          |                Calculation Setup                |
           -------------------------------------------------

          program call               : /home/xchen/software/xtb-6.7.1-gxtb/bin/xtb /home/xchen/Test/benchmark/md_sampled/04_7_0231_n2/snap_0159.xyz --charge -2 --gxtb --norestart
          coordinate file            : /home/xchen/Test/benchmark/md_sampled/04_7_0231_n2/snap_0159.xyz
          omp threads                :                    48

core increment energy         -2.9312527735450E+03 Eh
dispersion energy              2.3073837221379E-02 Eh
molecular charge              -2.0000000000000E+00 e
number of electrons            3.2799999999710E+02 e
number of unpaired electrons   0.0000000000000E+00 e
wavefunction                   restricted
integral cutoff                2.6907767250513E+01 bohr
energy convergence             1.0000000000000E-06 Eh
density convergence            2.0000000000000E-05 e

------------------------------------------------------------
  cycle        total energy    energy error   density error
------------------------------------------------------------
      1     -3195.836564260  -2.6460686E+02   0.0000000E+00
      2     -3196.336879007  -5.0031475E-01   2.0651438E-02
      3     -3196.654584913  -3.1770591E-01   1.6183919E-02
      4     -3197.318830360  -6.6424545E-01   1.2746026E-02
      5     -3197.329074651  -1.0244291E-02   8.6134866E-04
      6     -3197.329892973  -8.1832265E-04   1.6913265E-04
      7     -3197.329958505  -6.5531563E-05   5.2557969E-05
      8     -3197.329963136  -4.6309533E-06   1.4536880E-05
      9     -3197.329963718  -5.8210941E-07   2.5819014E-06
------------------------------------------------------------

electronic energy             -2.6610026401022E+02 Eh
total energy                  -3.1973299637180E+03 Eh

Post processing:
 | Mayer-Wiberg bond orders
 | Molecular Multipole Moments

 total:                                  30.171 sec
 - increment                              0.000 sec (  0%)
 - repulsion                              0.017 sec (  0%)
 - dispersion                             0.332 sec (  1%)
 - coulomb                                0.196 sec (  0%)
 - exchange                               0.030 sec (  0%)
 - hamiltonian                           17.581 sec ( 58%)
 - acp                                    0.333 sec (  1%)
 - spin polarization                      0.000 sec (  0%)
 - post processing                        0.197 sec (  0%)
 - scc                                   10.659 sec ( 35%)
 - coulomb gradient                       0.076 sec (  0%)
 - dispersion gradient                    0.044 sec (  0%)
 - exchange gradient                      0.158 sec (  0%)
 - repulsion gradient                     0.007 sec (  0%)
 - acp gradient                           0.287 sec (  0%)
 - hamiltonian gradient                   0.442 sec (  1%)
 - gradient                               1.013 sec (  3%)

         :::::::::::::::::::::::::::::::::::::::::::::::::::::
         ::                     SUMMARY                     ::
         :::::::::::::::::::::::::::::::::::::::::::::::::::::
         :: total energy           -3197.329963717999 Eh    ::
         :: gradient norm              0.443096466324 Eh/a0 ::
         :: HOMO-LUMO gap              5.683476490734 eV    ::
         ::.................................................::
         :: add. restraining           0.000000000000 Eh    ::
         :: total charge              -2.000000000000 e     ::
         :::::::::::::::::::::::::::::::::::::::::::::::::::::

           -------------------------------------------------
          |                Property Printout                |
           -------------------------------------------------

    * Orbital Energies and Occupations
------------------------------------------------------------------
      #    Occupation            Energy/Eh            Energy/eV
------------------------------------------------------------------
      1        2.0000           -1.2181296             -33.1470
    ...           ...                  ...                  ...
    152        2.0000           -0.2168333              -5.9003
    153        2.0000           -0.2157079              -5.8697
    154        2.0000           -0.2106821              -5.7330
    155        2.0000           -0.2101742              -5.7191
    156        2.0000           -0.2061935              -5.6108
    157        2.0000           -0.1974328              -5.3724
    158        2.0000           -0.1900270              -5.1709
    159        2.0000           -0.1775623              -4.8317
    160        2.0000           -0.1676008              -4.5607
    161        2.0000           -0.1632130              -4.4413
    162        2.0000           -0.1254657              -3.4141
    163        2.0000           -0.1115855              -3.0364
    164        2.0000           -0.0961236              -2.6157 (HOMO)
    165                          0.1127403               3.0678 (LUMO)
    166                          0.1386784               3.7736
    167                          0.1444243               3.9300
    168                          0.1468971               3.9973
    169                          0.1588974               4.3238
    170                          0.1691334               4.6024
    171                          0.1842090               5.0126
    172                          0.1895809               5.1588
    173                          0.1913089               5.2058
    174                          0.2083915               5.6706
    175                          0.2342851               6.3752
    ...                                ...                  ...
    296                          0.9565844              26.0300
------------------------------------------------------------------
               HL-Gap            0.2088639 Eh            5.6835 eV
------------------------------------------------------------------

Atomic charges and shell populations (in atomic units):
-----------------------------------------------------------------
     #    Z                q          p(s)       p(p)       p(d)
-----------------------------------------------------------------
     1    7 N      -0.348985      1.359516   3.989468
     2    6 C       0.018735      1.123570   2.857695
     3    6 C       0.439549      1.091230   2.469220
     4    8 O      -0.567707      1.858576   4.709131
     5    7 N      -0.303872      1.365388   3.938484
     6    6 C      -0.013174      1.122067   2.891107
     7    6 C       0.418616      1.096884   2.484500
     8    6 C       0.003971      1.140549   2.855480
     9    8 O      -0.565699      1.855742   4.709957
    10    7 N      -0.298955      1.361715   3.937241
    11    6 C      -0.150403      1.141792   3.008611
    12    6 C       0.415001      1.100632   2.484367
    13    6 C      -0.197659      1.149104   3.048555
    14    6 C       0.021092      1.130595   2.848314
    15    8 O      -0.627431      1.851029   4.776402
    16    6 C       0.498403      1.070851   2.430747
    17    7 N      -0.464232      1.472566   3.991666
    18    6 C      -0.252143      1.149155   3.102988
    19    8 O      -0.773156      1.861706   4.911450
    20    8 O      -0.661517      1.850614   4.810903
    21    6 C       0.395641      1.101972   2.502387
    22    6 C       0.525161      1.073387   2.401451
    23    6 C      -0.015898      1.118044   2.897854
    24    8 O      -0.610258      1.851044   4.759214
    25    8 O      -0.584257      1.849412   4.734845
    26    8 O      -0.651354      1.825924   4.825430
    27    7 N      -0.332542      1.390773   3.941768
    28    6 C      -0.177221      1.169534   3.007687
    29    6 C       0.405512      1.096284   2.498204
    30    6 C      -0.202918      1.156155   3.046763
    31    6 C      -0.007777      1.120104   2.887673
    32    8 O      -0.532567      1.849871   4.682696
    33    6 C      -0.209130      1.181525   3.027605
    34    7 N      -0.309369      1.359677   3.949692
    35    6 C      -0.162007      1.150877   3.011130
    36    6 C      -0.075483      1.142363   2.933121
    37    6 C       0.422320      1.097419   2.480261
    38    6 C      -0.136323      1.179595   2.956728
    39    7 N      -0.534702      1.382241   4.152460
    40    6 C      -0.019532      1.118779   2.900753
    41    8 O      -0.558443      1.859446   4.698996
    42   16 S      -0.202375      1.879745   4.245697   0.076934
    43    7 N      -0.357623      1.340263   4.017360
    44    6 C      -0.116661      1.149944   2.966717
    45    6 C      -0.227616      1.183492   3.044125
    46    6 C       0.405946      1.126277   2.467777
    47    6 C      -0.259643      1.168955   3.090688
    48    6 C      -0.173377      1.159294   3.014082
    49    8 O      -0.485570      1.857290   4.628280
    50    6 C      -0.266387      1.161347   3.105040
    51    6 C      -0.160974      1.152719   3.008255
    52    6 C      -0.181012      1.148818   3.032194
    53    6 C      -0.064658      1.149149   2.915509
    54    7 N      -0.377843      1.347390   4.030453
    55    6 C       0.285054      1.085324   2.629622
    56    7 N      -0.611536      1.565568   4.045968
    57    7 N      -0.468487      1.419752   4.048735
    58    6 C      -0.272147      1.160503   3.111644
    59    1 H       0.300978      0.699022
    60    1 H       0.101382      0.898618
    61    1 H       0.277392      0.722608
    62    1 H       0.132728      0.867272
    63    1 H       0.118740      0.881260
    64    1 H       0.279339      0.720661
    65    1 H       0.119032      0.880968
    66    1 H       0.129752      0.870248
    67    1 H       0.100503      0.899497
    68    1 H       0.079268      0.920732
    69    1 H       0.109888      0.890112
    70    1 H       0.363540      0.636460
    71    1 H       0.123690      0.876310
    72    1 H       0.121918      0.878082
    73    1 H       0.146762      0.853238
    74    1 H       0.296832      0.703168
    75    1 H       0.078447      0.921553
    76    1 H       0.090692      0.909308
    77    1 H       0.121873      0.878127
    78    1 H       0.084293      0.915707
    79    1 H       0.114623      0.885377
    80    1 H       0.112183      0.887817
    81    1 H       0.064034      0.935966
    82    1 H       0.264979      0.735021
    83    1 H       0.115995      0.884005
    84    1 H       0.123466      0.876534
    85    1 H       0.115825      0.884175
    86    1 H       0.070661      0.929339
    87    1 H       0.110978      0.889022
    88    1 H       0.097532      0.902468
    89    1 H       0.270050      0.729950
    90    1 H       0.207101      0.792899
    91    1 H       0.116601      0.883399
    92    1 H       0.261270      0.738730
    93    1 H       0.112633      0.887367
    94    1 H       0.130613      0.869387
    95    1 H       0.109712      0.890288
    96    1 H       0.086637      0.913363
    97    1 H       0.095777      0.904223
    98    1 H       0.089265      0.910735
    99    1 H       0.096206      0.903794
   100    1 H       0.086943      0.913057
   101    1 H       0.098715      0.901285
   102    1 H       0.085265      0.914735
   103    1 H       0.103697      0.896303
   104    1 H       0.090671      0.909329
   105    1 H       0.126754      0.873246
   106    1 H       0.096029      0.903971
   107    1 H       0.105064      0.894936
   108    1 H       0.114758      0.885242
   109    1 H       0.094491      0.905509
   110    1 H       0.084959      0.915041
   111    1 H       0.267185      0.732815
   112    1 H       0.214318      0.785682
   113    1 H       0.244168      0.755832
   114    1 H       0.254386      0.745614
   115    1 H       0.143153      0.856847
   116    1 H       0.071700      0.928300
   117    1 H       0.090175      0.909825
-----------------------------------------------------------------


Wiberg/Mayer (AO) data.
largest (>0.10) Wiberg bond orders for each atom

 ---------------------------------------------------------------------------
     #   Z sym  total        # sym  WBO       # sym  WBO       # sym  WBO
 ---------------------------------------------------------------------------
     1   7 N    3.334 --     7 C    1.258     2 C    0.980    59 N    0.821
                             9 C    0.166
     2   6 C    3.947 --    51 C    0.981     1 N    0.980    60 N    0.933
                             3 C    0.932
     3   6 C    3.870 --     4 C    1.622     5 N    1.239     2 C    0.932
     4   8 C    1.894 --     3 C    1.622     5 N    0.144
     5   7 N    3.329 --     3 C    1.239     6 C    0.982    61 N    0.878
                             4 C    0.144
     6   6 C    3.944 --    58 C    1.028     5 N    0.982    62 N    0.930
                            46 C    0.871
     7   6 C    3.873 --     9 C    1.608     1 N    1.258     8 C    0.930
     8   6 C    3.903 --    11 C    0.985     7 C    0.930    63 N    0.929
                            10 N    0.918
     9   8 C    1.911 --     7 C    1.608     1 N    0.166
    10   7 N    3.421 --    12 C    1.381     8 C    0.918    64 N    0.865
                            15 C    0.162
    11   6 C    3.946 --    13 C    1.003     8 C    0.985    66 N    0.952
                            65 N    0.944
    12   6 C    3.867 --    15 C    1.496    10 N    1.381    14 C    0.902
    13   6 C    3.964 --    11 C    1.003    68 N    0.959    16 C    0.947
                            67 N    0.943
    14   6 C    3.944 --    18 C    1.002    17 N    0.970    69 N    0.941
                            12 C    0.902
    15   8 C    1.854 --    12 C    1.496    10 N    0.162
    16   6 C    3.872 --    20 C    1.536    19 C    1.364    13 C    0.947
    17   7 N    3.165 --    21 C    1.323    14 C    0.970    70 N    0.511
                            24 C    0.155
    18   6 C    3.955 --    14 C    1.002    72 N    0.952    71 N    0.931
                            22 C    0.923
    19   8 C    1.646 --    16 C    1.364    20 C    0.193
    20   8 C    1.805 --    16 C    1.536    19 C    0.193
    21   6 C    3.883 --    24 C    1.551    17 N    1.323    23 C    0.922
    22   6 C    3.852 --    25 C    1.627    26 C    1.260    18 C    0.923
    23   6 C    3.928 --    27 N    0.978    28 C    0.954    73 N    0.936
                            21 C    0.922
    24   8 C    1.889 --    21 C    1.551    17 N    0.155
    25   8 C    1.906 --    22 C    1.627    26 C    0.170
    26   8 C    1.916 --    22 C    1.260    70 N    0.325    25 C    0.170
    27   7 N    3.325 --    29 C    1.244    23 C    0.978    74 N    0.837
                            32 C    0.162
    28   6 C    3.962 --    30 C    1.013    75 N    0.960    76 N    0.955
                            23 C    0.954
    29   6 C    3.882 --    32 C    1.658    27 N    1.244    31 C    0.909
    30   6 C    3.960 --    28 C    1.013    33 C    0.995    78 N    0.966
                            77 N    0.938
    31   6 C    3.931 --    35 C    1.004    34 N    0.941    79 N    0.930
                            29 C    0.909
    32   8 C    1.961 --    29 C    1.658    27 N    0.162
    33   6 C    3.955 --    30 C    0.995    36 C    0.973    81 N    0.966
                            80 N    0.954
    34   7 N    3.370 --    37 C    1.272    31 C    0.941    82 N    0.885
                            41 C    0.171
    35   6 C    3.952 --    31 C    1.004    38 C    1.004    83 N    0.947
                            84 N    0.935
    36   6 C    3.953 --    39 N    1.029    33 C    0.973    86 N    0.961
                            85 N    0.959
    37   6 C    3.882 --    41 C    1.611    34 N    1.272    40 C    0.920
    38   6 C    3.939 --    35 C    1.004    42 O    0.981    88 N    0.960
                            87 N    0.958
    39   7 N    2.939 --    36 C    1.029    90 N    0.939    89 N    0.901
    40   6 C    3.937 --    43 N    0.987    44 C    0.961    91 N    0.934
                            37 C    0.920
    41   8 C    1.902 --    37 C    1.611    34 N    0.171
    42  16 O    2.101 --    45 C    1.015    38 C    0.981
    43   7 N    3.289 --    46 C    1.159    40 C    0.987    92 N    0.890
                            49 C    0.153
    44   6 C    3.966 --    47 C    1.004    48 C    0.987    40 C    0.961
                            93 N    0.950
    45   6 C    3.927 --    42 O    1.015    94 N    0.963    96 N    0.962
                            95 N    0.958
    46   6 C    3.848 --    49 C    1.731    43 N    1.159     6 C    0.871
    47   6 C    3.959 --    44 C    1.004    99 N    0.976    98 N    0.970
                            97 N    0.969
    48   6 C    3.963 --    50 C    1.025    44 C    0.987   101 N    0.955
                           100 N    0.954
    49   8 C    2.000 --    46 C    1.731    43 N    0.153
    50   6 C    3.962 --    48 C    1.025   103 N    0.973   104 N    0.972
                           102 N    0.969
    51   6 C    3.958 --    52 C    1.012     2 C    0.981   106 N    0.956
                           105 N    0.947
    52   6 C    3.960 --    51 C    1.012    53 C    1.003   107 N    0.953
                           108 N    0.952
    53   6 C    3.918 --    52 C    1.003    54 N    0.963   110 N    0.955
                           109 N    0.952
    54   7 N    3.271 --    55 C    1.188    53 C    0.963   111 N    0.891
                            56 N    0.137
    55   6 C    3.935 --    56 N    1.602    54 N    1.188    57 N    1.113
    56   7 N    2.807 --    55 C    1.602   112 N    0.926    54 N    0.137
    57   7 N    3.089 --    55 C    1.113   114 N    0.913   113 N    0.910
    58   6 C    3.957 --     6 C    1.028   116 N    0.970   117 N    0.965
                           115 N    0.954
    59   1 N    0.909 --     1 N    0.821
    60   1 N    0.990 --     2 C    0.933
    61   1 N    0.923 --     5 N    0.878
    62   1 N    0.982 --     6 C    0.930
    63   1 N    0.986 --     8 C    0.929
    64   1 N    0.922 --    10 N    0.865
    65   1 N    0.986 --    11 C    0.944
    66   1 N    0.983 --    11 C    0.952
    67   1 N    0.990 --    13 C    0.943
    68   1 N    0.994 --    13 C    0.959
    69   1 N    0.988 --    14 C    0.941
    70   1 N    0.868 --    17 N    0.511    26 C    0.325
    71   1 N    0.985 --    18 C    0.931
    72   1 N    0.985 --    18 C    0.952
    73   1 N    0.978 --    23 C    0.936
    74   1 N    0.912 --    27 N    0.837
    75   1 N    0.994 --    28 C    0.960
    76   1 N    0.992 --    28 C    0.955
    77   1 N    0.985 --    30 C    0.938
    78   1 N    0.993 --    30 C    0.966
    79   1 N    0.987 --    31 C    0.930
    80   1 N    0.987 --    33 C    0.954
    81   1 N    0.996 --    33 C    0.966
    82   1 N    0.930 --    34 N    0.885
    83   1 N    0.987 --    35 C    0.947
    84   1 N    0.985 --    35 C    0.935
    85   1 N    0.987 --    36 C    0.959
    86   1 N    0.995 --    36 C    0.961
    87   1 N    0.988 --    38 C    0.958
    88   1 N    0.990 --    38 C    0.960
    89   1 N    0.927 --    39 N    0.901
    90   1 N    0.957 --    39 N    0.939
    91   1 N    0.986 --    40 C    0.934
    92   1 N    0.932 --    43 N    0.890
    93   1 N    0.987 --    44 C    0.950
    94   1 N    0.983 --    45 C    0.963
    95   1 N    0.988 --    45 C    0.958
    96   1 N    0.992 --    45 C    0.962
    97   1 N    0.991 --    47 C    0.969
    98   1 N    0.992 --    47 C    0.970
    99   1 N    0.991 --    47 C    0.976
   100   1 N    0.992 --    48 C    0.954
   101   1 N    0.990 --    48 C    0.955
   102   1 N    0.993 --    50 C    0.969
   103   1 N    0.989 --    50 C    0.973
   104   1 N    0.992 --    50 C    0.972
   105   1 N    0.984 --    51 C    0.947
   106   1 N    0.991 --    51 C    0.956
   107   1 N    0.989 --    52 C    0.953
   108   1 N    0.987 --    52 C    0.952
   109   1 N    0.991 --    53 C    0.952
   110   1 N    0.993 --    53 C    0.955
   111   1 N    0.929 --    54 N    0.891
   112   1 N    0.954 --    56 N    0.926
   113   1 N    0.940 --    57 N    0.910
   114   1 N    0.935 --    57 N    0.913
   115   1 N    0.980 --    58 C    0.954
   116   1 N    0.995 --    58 C    0.970
   117   1 N    0.992 --    58 C    0.965
 ---------------------------------------------------------------------------

Topologies differ in total number of bonds
Writing topology from bond orders to xtbtopo.mol

Atomic dipole moments (in atomic units):
---------------------------------------------------------
     #    Z                 x            y            z
---------------------------------------------------------
           total    -0.289106    14.709252     2.219211
---------------------------------------------------------
         |total|    14.878527    37.817443 Debye


           -------------------------------------------------
          | TOTAL ENERGY            -3197.329963717999 Eh   |
          | GRADIENT NORM               0.443096466324 Eh/α |
           -------------------------------------------------

------------------------------------------------------------------------
 * finished run on 2026/05/23 at 13:00:27.957     
------------------------------------------------------------------------
 total:
 * wall-time:     0 d,  0 h,  0 min, 31.057 sec
 *  cpu-time:     0 d,  0 h,  1 min, 23.017 sec
 * ratio c/w:     2.673 speedup
 SCF:
 * wall-time:     0 d,  0 h,  0 min, 30.691 sec
 *  cpu-time:     0 d,  0 h,  1 min, 22.367 sec
 * ratio c/w:     2.684 speedup

normal termination of xtb
