      -----------------------------------------------------------      
     |                   =====================                   |     
     |                           x T B                           |     
     |                   =====================                   |     
     |                         S. Grimme                         |     
     |          Mulliken Center for Theoretical Chemistry        |     
     |                    University of Bonn                     |     
      -----------------------------------------------------------      

   * xtb version 6.7.1 (edcfbbe) compiled by 'albert@albert-system' on 2024-07-22

   xtb is free software: you can redistribute it and/or modify it under
   the terms of the GNU Lesser General Public License as published by
   the Free Software Foundation, either version 3 of the License, or
   (at your option) any later version.
   
   xtb is distributed in the hope that it will be useful,
   but WITHOUT ANY WARRANTY; without even the implied warranty of
   MERCHANTABILITY or FITNESS FOR A PARTICULAR PURPOSE.  See the
   GNU Lesser General Public License for more details.
   
   Cite this work as:
   * C. Bannwarth, E. Caldeweyher, S. Ehlert, A. Hansen, P. Pracht,
     J. Seibert, S. Spicher, S. Grimme, WIREs Comput. Mol. Sci., 2020, 11,
     e01493. DOI: 10.1002/wcms.1493
   
   for GFN2-xTB:
   * C. Bannwarth, S. Ehlert and S. Grimme., J. Chem. Theory Comput., 2019,
     15, 1652-1671. DOI: 10.1021/acs.jctc.8b01176
   for GFN1-xTB:
   * S. Grimme, C. Bannwarth, P. Shushkov, J. Chem. Theory Comput., 2017,
     13, 1989-2009. DOI: 10.1021/acs.jctc.7b00118
   for GFN0-xTB:
   * P. Pracht, E. Caldeweyher, S. Ehlert, S. Grimme, ChemRxiv, 2019, preprint.
     DOI: 10.26434/chemrxiv.8326202.v1
   for GFN-FF:
   * S. Spicher and S. Grimme, Angew. Chem. Int. Ed., 2020, 59, 15665-15673.
     DOI: 10.1002/anie.202004239
   
   for ALPB and GBSA implicit solvation:
   * S. Ehlert, M. Stahn, S. Spicher, S. Grimme, J. Chem. Theory Comput.,
     2021, 17, 4250-4261. DOI: 10.1021/acs.jctc.1c00471
   
   for ddCOSMO and CPCM-X implicit solvation:
   * M. Stahn, S. Ehlert, S. Grimme, J. Phys. Chem. A,
     2023, XX, XXXX-XXXX. DOI: 10.1021/acs.jpca.3c04382
   
   for DFT-D4:
   * E. Caldeweyher, C. Bannwarth and S. Grimme, J. Chem. Phys., 2017,
     147, 034112. DOI: 10.1063/1.4993215
   * E. Caldeweyher, S. Ehlert, A. Hansen, H. Neugebauer, S. Spicher,
     C. Bannwarth and S. Grimme, J. Chem. Phys., 2019, 150, 154122.
     DOI: 10.1063/1.5090222
   * E. Caldeweyher, J.-M. Mewes, S. Ehlert and S. Grimme, Phys. Chem. Chem. Phys.
     2020, 22, 8499-8512. DOI: 10.1039/D0CP00502A
   
   for sTDA-xTB:
   * S. Grimme and C. Bannwarth, J. Chem. Phys., 2016, 145, 054103.
     DOI: 10.1063/1.4959605
   
   in the mass-spec context:
   * V. Asgeirsson, C. Bauer and S. Grimme, Chem. Sci., 2017, 8, 4879.
     DOI: 10.1039/c7sc00601b
   * J. Koopman and S. Grimme, ACS Omega 2019, 4, 12, 15120-15133.
     DOI: 10.1021/acsomega.9b02011
   
   for metadynamics refer to:
   * S. Grimme, J. Chem. Theory Comput., 2019, 155, 2847-2862
     DOI: 10.1021/acs.jctc.9b00143
   
   for SPH calculations refer to:
   * S. Spicher and S. Grimme, J. Chem. Theory Comput., 2021, 17, 1701-1714
     DOI: 10.1021/acs.jctc.0c01306
   
   for ONIOM refer to:
   * C. Plett, A. Katbashev, S. Ehlert, S. Grimme, M. Bursch,
     Phys. Chem. Chem. Phys., 2023, 25, 17860-17868. DOI: 10.1039/D3CP02178E
   
   for DIPRO refer to:
   * J. Kohn, N. Gildemeister, S. Grimme, D. Fazzi, A. Hansen,
     J. Chem. Phys., 2023, just accepted.
   
   for PTB refer to:
   * S. Grimme, M. Mueller, A. Hansen, J. Chem. Phys., 2023, 158, 124111.
     DOI: 10.1063/5.0137838
   
   with help from (in alphabetical order)
   P. Atkinson, C. Bannwarth, F. Bohle, G. Brandenburg, E. Caldeweyher
   M. Checinski, S. Dohm, S. Ehlert, S. Ehrlich, I. Gerasimov, C. Hölzer
   A. Katbashev, J. Kohn, J. Koopman, C. Lavigne, S. Lehtola, F. März, M. Müller,
   F. Musil, H. Neugebauer, J. Pisarek, C. Plett, P. Pracht, F. Pultar,
   J. Seibert, P. Shushkov, S. Spicher, M. Stahn, M. Steiner, T. Strunk,
   J. Stückrath, T. Rose, and J. Unsleber
   
 * started run on 2026/05/23 at 12:25:13.649     
   ID    Z sym.   atoms
    1    7 N      1, 5, 10, 18, 28, 30, 37-39, 41, 47, 48, 56
    2    6 C      2, 3, 6-8, 11-14, 16, 17, 19-25, 27, 29, 31-34, 36, 40,
                  42-45, 49, 51-55
    3    8 O      4, 9, 15, 26, 35, 46, 50
    4    1 H      57-115

           -------------------------------------------------
          |                Calculation Setup                |
           -------------------------------------------------

          program call               : /home/xchen/software/xtb-6.7.1/xtb-dist/bin/xtb /home/xchen/Test/benchmark/md_sampled/03_6_0978_0/snap_0011.xyz --charge 0 --gfn 2 --norestart
          coordinate file            : /home/xchen/Test/benchmark/md_sampled/03_6_0978_0/snap_0011.xyz
          omp threads                :                    48


           -------------------------------------------------
          |                 G F N 2 - x T B                 |
           -------------------------------------------------

        Reference                      10.1021/acs.jctc.8b01176
      * Hamiltonian:
        H0-scaling (s, p, d)           1.850000    2.230000    2.230000
        zeta-weighting                 0.500000
      * Dispersion:
        s8                             2.700000
        a1                             0.520000
        a2                             5.000000
        s9                             5.000000
      * Repulsion:
        kExp                           1.500000    1.000000
        rExp                           1.000000
      * Coulomb:
        alpha                          2.000000
        third order                    shell-resolved
        anisotropic                    true
        a3                             3.000000
        a5                             4.000000
        cn-shift                       1.200000
        cn-exp                         4.000000
        max-rad                        5.000000


          ...................................................
          :                      SETUP                      :
          :.................................................:
          :  # basis functions                 283          :
          :  # atomic orbitals                 283          :
          :  # shells                          171          :
          :  # electrons                       310          :
          :  max. iterations                   250          :
          :  Hamiltonian                  GFN2-xTB          :
          :  restarted?                      false          :
          :  GBSA solvation                  false          :
          :  PC potential                    false          :
          :  electronic temp.          300.0000000     K    :
          :  accuracy                    1.0000000          :
          :  -> integral cutoff          0.2500000E+02      :
          :  -> integral neglect         0.1000000E-07      :
          :  -> SCF convergence          0.1000000E-05 Eh   :
          :  -> wf. convergence          0.1000000E-03 e    :
          :  Broyden damping             0.4000000          :
          :  net charge                          0          :
          :  unpaired electrons                  0          :
          ...................................................

 iter      E             dE          RMSdq      gap      omega  full diag
   1   -175.1425030 -0.175143E+03  0.389E+00    2.96       0.0  T
   2   -175.5298312 -0.387328E+00  0.212E+00    2.38       1.0  T
   3   -175.5486281 -0.187969E-01  0.113E+00    2.78       1.0  T
   4   -175.5543475 -0.571939E-02  0.233E-01    2.88       1.0  T
   5   -175.5588953 -0.454784E-02  0.886E-02    2.87       1.0  T
   6   -175.5590961 -0.200778E-03  0.405E-02    2.85       1.0  T
   7   -175.5591201 -0.240419E-04  0.190E-02    2.84       1.0  T
   8   -175.5591371 -0.169820E-04  0.584E-03    2.84       1.6  T
   9   -175.5591383 -0.119827E-05  0.254E-03    2.84       3.7  T
  10   -175.5591384 -0.106210E-06  0.108E-03    2.84       8.7  T
  11   -175.5591384 -0.267052E-07  0.434E-04    2.84      21.5  T
  12   -175.5591385 -0.722477E-08  0.140E-04    2.84      66.5  T

   *** convergence criteria satisfied after 12 iterations ***

         #    Occupation            Energy/Eh            Energy/eV
      -------------------------------------------------------------
         1        2.0000           -0.7059754             -19.2106
       ...           ...                  ...                  ...
       149        2.0000           -0.3752708             -10.2116
       150        2.0000           -0.3646919              -9.9238
       151        2.0000           -0.3623706              -9.8606
       152        2.0000           -0.3609762              -9.8227
       153        2.0000           -0.3496256              -9.5138
       154        2.0000           -0.3467223              -9.4348
       155        2.0000           -0.3459111              -9.4127 (HOMO)
       156                         -0.2414107              -6.5691 (LUMO)
       157                         -0.2366338              -6.4391
       158                         -0.2338061              -6.3622
       159                         -0.2271075              -6.1799
       160                         -0.2252849              -6.1303
       ...                                ...                  ...
       283                          0.6921341              18.8339
      -------------------------------------------------------------
                  HL-Gap            0.1045004 Eh            2.8436 eV
             Fermi-level           -0.2936609 Eh           -7.9909 eV

 SCC (total)                   0 d,  0 h,  0 min, 21.699 sec
 SCC setup                      ...        0 min,  0.034 sec (  0.157%)
 Dispersion                     ...        0 min,  0.164 sec (  0.755%)
 classical contributions        ...        0 min,  0.013 sec (  0.058%)
 integral evaluation            ...        0 min,  0.486 sec (  2.241%)
 iterations                     ...        0 min, 20.047 sec ( 92.385%)
 molecular gradient             ...        0 min,  0.883 sec (  4.070%)
 printout                       ...        0 min,  0.072 sec (  0.333%)

         :::::::::::::::::::::::::::::::::::::::::::::::::::::
         ::                     SUMMARY                     ::
         :::::::::::::::::::::::::::::::::::::::::::::::::::::
         :: total energy            -173.513318987117 Eh    ::
         :: gradient norm              0.370656148597 Eh/a0 ::
         :: HOMO-LUMO gap              2.843601014761 eV    ::
         ::.................................................::
         :: SCC energy              -175.552069440596 Eh    ::
         :: -> isotropic ES            0.354072970597 Eh    ::
         :: -> anisotropic ES          0.014127334717 Eh    ::
         :: -> anisotropic XC          0.080805337771 Eh    ::
         :: -> dispersion             -0.138017184717 Eh    ::
         :: repulsion energy           2.038750453478 Eh    ::
         :: add. restraining           0.000000000000 Eh    ::
         :: total charge              -0.000000000000 e     ::
         :::::::::::::::::::::::::::::::::::::::::::::::::::::

           -------------------------------------------------
          |                Property Printout                |
           -------------------------------------------------

    * Orbital Energies and Occupations

         #    Occupation            Energy/Eh            Energy/eV
      -------------------------------------------------------------
         1        2.0000           -0.7059754             -19.2106
       ...           ...                  ...                  ...
       143        2.0000           -0.3936221             -10.7110
       144        2.0000           -0.3868157             -10.5258
       145        2.0000           -0.3856916             -10.4952
       146        2.0000           -0.3822263             -10.4009
       147        2.0000           -0.3808443             -10.3633
       148        2.0000           -0.3770781             -10.2608
       149        2.0000           -0.3752708             -10.2116
       150        2.0000           -0.3646919              -9.9238
       151        2.0000           -0.3623706              -9.8606
       152        2.0000           -0.3609762              -9.8227
       153        2.0000           -0.3496256              -9.5138
       154        2.0000           -0.3467223              -9.4348
       155        2.0000           -0.3459111              -9.4127 (HOMO)
       156                         -0.2414107              -6.5691 (LUMO)
       157                         -0.2366338              -6.4391
       158                         -0.2338061              -6.3622
       159                         -0.2271075              -6.1799
       160                         -0.2252849              -6.1303
       161                         -0.2156692              -5.8687
       162                         -0.2122473              -5.7755
       163                         -0.1953448              -5.3156
       164                         -0.1698439              -4.6217
       165                         -0.1500852              -4.0840
       166                         -0.1077606              -2.9323
       ...                                ...                  ...
       283                          0.6921341              18.8339
      -------------------------------------------------------------
                  HL-Gap            0.1045004 Eh            2.8436 eV
             Fermi-level           -0.2936609 Eh           -7.9909 eV

     #   Z          covCN         q      C6AA      α(0)
     1   7 N        2.693    -0.209    25.537     7.505
     2   6 C        3.806     0.037    19.956     6.359
     3   6 C        2.756     0.290    22.085     7.696
     4   8 O        0.859    -0.416    22.010     6.290
     5   7 N        2.690    -0.194    25.208     7.457
     6   6 C        3.768     0.021    20.252     6.414
     7   6 C        2.755     0.252    22.761     7.812
     8   6 C        3.812     0.030    20.068     6.376
     9   8 O        0.860    -0.397    21.625     6.235
    10   7 N        2.692    -0.163    24.525     7.355
    11   6 C        3.808    -0.080    22.013     6.679
    12   6 C        2.788     0.277    22.323     7.739
    13   6 C        2.965     0.006    27.892     8.663
    14   6 C        3.790     0.024    20.181     6.398
    15   8 O        0.860    -0.433    22.343     6.338
    16   6 C        2.960    -0.038    28.939     8.824
    17   6 C        2.960    -0.043    29.076     8.845
    18   7 N        2.698    -0.188    25.077     7.437
    19   6 C        3.809    -0.069    21.807     6.647
    20   6 C        2.916    -0.026    28.651     8.777
    21   6 C        2.905    -0.019    28.493     8.753
    22   6 C        2.759     0.256    22.700     7.802
    23   6 C        3.804    -0.063    21.699     6.632
    24   6 C        2.937    -0.018    28.453     8.748
    25   6 C        3.772     0.022    20.239     6.411
    26   8 O        0.866    -0.431    22.297     6.331
    27   6 C        3.740     0.018    20.342     6.435
    28   7 N        2.691    -0.218    25.756     7.537
    29   6 C        3.788    -0.055    21.570     6.615
    30   7 N        2.684    -0.266    26.889     7.701
    31   6 C        2.763     0.287    22.142     7.706
    32   6 C        3.797    -0.065    21.751     6.641
    33   6 C        2.731     0.235    23.080     7.865
    34   6 C        3.833     0.029    20.067     6.373
    35   8 O        0.857    -0.428    22.246     6.324
    36   6 C        3.738     0.009    20.511     6.462
    37   7 N        1.783    -0.411    31.632     8.330
    38   7 N        2.640    -0.306    27.869     7.840
    39   7 N        2.769    -0.094    23.077     7.135
    40   6 C        3.823    -0.067    21.763     6.639
    41   7 N        2.701    -0.217    25.727     7.533
    42   6 C        3.736    -0.003    20.719     6.496
    43   6 C        2.747     0.261    22.595     7.783
    44   6 C        3.826    -0.055    21.541     6.604
    45   6 C        2.732     0.233    23.111     7.871
    46   8 O        0.857    -0.429    22.273     6.327
    47   7 N        1.786    -0.444    32.612     8.458
    48   7 N        2.659    -0.290    27.472     7.784
    49   6 C        3.728     0.117    18.757     6.183
    50   8 O        1.654    -0.444    21.732     6.293
    51   6 C        3.748    -0.123    22.929     6.830
    52   6 C        3.786    -0.057    21.622     6.623
    53   6 C        3.789    -0.053    21.535     6.609
    54   6 C        3.798    -0.066    21.761     6.642
    55   6 C        3.729     0.031    20.150     6.408
    56   7 N        2.632    -0.349    29.003     7.998
    57   1 H        0.860     0.167     1.294     1.782
    58   1 H        0.923     0.083     1.950     2.184
    59   1 H        0.860     0.182     1.205     1.719
    60   1 H        0.918     0.077     2.010     2.217
    61   1 H        0.918     0.093     1.851     2.128
    62   1 H        0.858     0.188     1.169     1.694
    63   1 H        0.927     0.049     2.337     2.391
    64   1 H        0.922     0.055     2.262     2.352
    65   1 H        0.927     0.081     1.963     2.191
    66   1 H        0.926     0.027     2.631     2.536
    67   1 H        0.925     0.027     2.624     2.533
    68   1 H        0.859     0.166     1.299     1.786
    69   1 H        0.928     0.060     2.197     2.318
    70   1 H        0.921     0.045     2.382     2.414
    71   1 H        0.917     0.032     2.556     2.500
    72   1 H        0.911     0.026     2.643     2.543
    73   1 H        0.922     0.058     2.220     2.330
    74   1 H        0.924     0.057     2.237     2.339
    75   1 H        0.924     0.036     2.497     2.471
    76   1 H        0.927     0.061     2.189     2.313
    77   1 H        0.926     0.048     2.342     2.393
    78   1 H        0.925     0.015     2.805     2.619
    79   1 H        0.858     0.185     1.185     1.706
    80   1 H        0.911     0.018     2.765     2.601
    81   1 H        0.923     0.079     1.988     2.205
    82   1 H        0.858     0.150     1.403     1.856
    83   1 H        0.924     0.075     2.035     2.231
    84   1 H        0.916     0.043     2.412     2.429
    85   1 H        0.920     0.080     1.979     2.200
    86   1 H        0.927     0.043     2.406     2.425
    87   1 H        0.918     0.040     2.444     2.445
    88   1 H        0.858     0.139     1.482     1.907
    89   1 H        0.859     0.177     1.234     1.740
    90   1 H        0.858     0.193     1.141     1.673
    91   1 H        0.917     0.056     2.243     2.342
    92   1 H        0.925     0.048     2.342     2.393
    93   1 H        0.861     0.166     1.295     1.782
    94   1 H        0.926     0.067     2.124     2.279
    95   1 H        0.922     0.056     2.245     2.343
    96   1 H        0.913     0.032     2.555     2.500
    97   1 H        0.922     0.055     2.263     2.353
    98   1 H        0.853     0.094     1.852     2.132
    99   1 H        0.857     0.155     1.369     1.833
   100   1 H        0.859     0.188     1.170     1.694
   101   1 H        0.923     0.016     2.801     2.617
   102   1 H        0.805     0.292     0.744     1.355
   103   1 H        0.925     0.059     2.216     2.328
   104   1 H        0.921     0.066     2.133     2.284
   105   1 H        0.922     0.038     2.481     2.464
   106   1 H        0.918     0.039     2.460     2.453
   107   1 H        0.918     0.055     2.262     2.352
   108   1 H        0.918     0.042     2.423     2.435
   109   1 H        0.920     0.035     2.516     2.481
   110   1 H        0.921     0.037     2.492     2.469
   111   1 H        0.923     0.033     2.539     2.492
   112   1 H        0.917     0.019     2.755     2.596
   113   1 H        0.921    -0.001     3.077     2.743
   114   1 H        0.861     0.143     1.453     1.888
   115   1 H        0.862     0.147     1.418     1.865

 Mol. C6AA /au·bohr⁶  :     125676.509333
 Mol. C8AA /au·bohr⁸  :    2796390.934259
 Mol. α(0) /au        :        534.217702


Wiberg/Mayer (AO) data.
largest (>0.10) Wiberg bond orders for each atom

 ---------------------------------------------------------------------------
     #   Z sym  total        # sym  WBO       # sym  WBO       # sym  WBO
 ---------------------------------------------------------------------------
     1   7 N    3.377 --     7 C    1.215     2 C    0.960    57 H    0.931
                             9 O    0.177
     2   6 C    3.964 --     3 C    0.971    49 C    0.965     1 N    0.960
                            58 H    0.948
     3   6 C    3.955 --     4 O    1.703     5 N    1.200     2 C    0.971
     4   8 O    2.003 --     3 C    1.703     5 N    0.179
     5   7 N    3.383 --     3 C    1.200     6 C    0.991    59 H    0.922
                             4 O    0.179
     6   6 C    3.959 --     5 N    0.991    52 C    0.977    60 H    0.949
                            43 C    0.912
     7   6 C    3.938 --     9 O    1.724     1 N    1.215     8 C    0.902
     8   6 C    3.968 --    10 N    1.036    11 C    0.970    61 H    0.916
                             7 C    0.902
     9   8 O    2.055 --     7 C    1.724     1 N    0.177
    10   7 N    3.413 --    12 C    1.210     8 C    1.036    62 H    0.913
                            15 O    0.174
    11   6 C    3.993 --    13 C    0.998    63 H    0.973     8 C    0.970
                            64 H    0.968
    12   6 C    3.950 --    15 O    1.680    10 N    1.210    14 C    0.971
    13   6 C    3.988 --    16 C    1.469    17 C    1.375    11 C    0.998
                            24 C    0.101
    14   6 C    3.963 --    18 N    0.974    12 C    0.971    19 C    0.952
                            65 H    0.951
    15   8 O    1.993 --    12 C    1.680    10 N    0.174
    16   6 C    3.992 --    13 C    1.469    20 C    1.399    66 H    0.958
                            21 C    0.102
    17   6 C    3.989 --    21 C    1.458    13 C    1.375    67 H    0.969
                            20 C    0.128
    18   7 N    3.423 --    22 C    1.247    14 C    0.974    68 H    0.928
                            26 O    0.184
    19   6 C    3.988 --    23 C    1.021    70 H    0.971    69 H    0.968
                            14 C    0.952
    20   6 C    3.988 --    24 C    1.451    16 C    1.399    71 H    0.965
                            17 C    0.128
    21   6 C    3.988 --    17 C    1.458    24 C    1.433    72 H    0.962
                            16 C    0.102
    22   6 C    3.946 --    26 O    1.671    18 N    1.247    25 C    0.947
    23   6 C    3.994 --    19 C    1.021    27 C    1.004    73 H    0.969
                            74 H    0.965
    24   6 C    3.992 --    20 C    1.451    21 C    1.433    75 H    0.966
                            13 C    0.101
    25   6 C    3.972 --    28 N    0.980    29 C    0.958    22 C    0.947
                            76 H    0.946
    26   8 O    2.000 --    22 C    1.671    18 N    0.184
    27   6 C    3.984 --    23 C    1.004    30 N    1.004    77 H    0.972
                            78 H    0.958
    28   7 N    3.300 --    31 C    1.174    25 C    0.980    79 H    0.915
                            35 O    0.143
    29   6 C    3.984 --    32 C    1.012    81 H    0.971    80 H    0.967
                            25 C    0.958
    30   7 N    3.188 --    33 C    1.043    27 C    1.004    82 H    0.943
                            37 N    0.113
    31   6 C    3.942 --    35 O    1.703    28 N    1.174    34 C    0.974
    32   6 C    3.990 --    29 C    1.012    36 C    1.007    83 H    0.970
                            84 H    0.968
    33   6 C    3.964 --    37 N    1.746    38 N    1.145    30 N    1.043
    34   6 C    3.973 --    31 C    0.974    40 C    0.972    39 N    0.968
                            85 H    0.937
    35   8 O    1.986 --    31 C    1.703    28 N    0.143
    36   6 C    3.977 --    32 C    1.007    41 N    0.986    86 H    0.970
                            87 H    0.958
    37   7 N    2.966 --    33 C    1.746    88 H    0.929    38 N    0.126
                            30 N    0.113
    38   7 N    3.231 --    33 C    1.145    89 H    0.949    90 H    0.941
                            37 N    0.126
    39   7 N    3.469 --    43 C    1.223    42 C    0.985    34 C    0.968
                            46 O    0.192
    40   6 C    3.986 --    44 C    0.997    92 H    0.977    34 C    0.972
                            91 H    0.970
    41   7 N    3.330 --    45 C    1.167    36 C    0.986    93 H    0.936
                            47 N    0.146
    42   6 C    3.971 --    44 C    0.999    39 N    0.985    94 H    0.968
                            95 H    0.965
    43   6 C    3.937 --    46 O    1.701    39 N    1.223     6 C    0.912
    44   6 C    3.987 --    42 C    0.999    40 C    0.997    97 H    0.977
                            96 H    0.975
    45   6 C    3.959 --    47 N    1.620    41 N    1.167    48 N    1.149
    46   8 O    2.036 --    43 C    1.701    39 N    0.192
    47   7 N    2.885 --    45 C    1.620    98 H    0.960    41 N    0.146
                            48 N    0.116
    48   7 N    3.253 --    45 C    1.149    99 H    0.954   100 H    0.948
                            47 N    0.116
    49   6 C    3.960 --    51 C    1.012    50 O    0.975     2 C    0.965
                           101 H    0.964
    50   8 O    1.946 --    49 C    0.975   102 H    0.903
    51   6 C    3.991 --    49 C    1.012   105 H    0.981   104 H    0.978
                           103 H    0.978
    52   6 C    3.987 --    53 C    1.008     6 C    0.977   106 H    0.972
                           107 H    0.962
    53   6 C    3.992 --    52 C    1.008    54 C    1.007   108 H    0.973
                           109 H    0.971
    54   6 C    3.994 --    55 C    1.010    53 C    1.007   111 H    0.973
                           110 H    0.971
    55   6 C    3.985 --    56 N    1.030    54 C    1.010   112 H    0.968
                           113 H    0.958
    56   7 N    3.014 --    55 C    1.030   115 H    0.967   114 H    0.965
    57   1 H    0.972 --     1 N    0.931
    58   1 H    0.993 --     2 C    0.948
    59   1 H    0.967 --     5 N    0.922
    60   1 H    0.994 --     6 C    0.949
    61   1 H    0.990 --     8 C    0.916
    62   1 H    0.965 --    10 N    0.913
    63   1 H    0.997 --    11 C    0.973
    64   1 H    0.997 --    11 C    0.968
    65   1 H    0.993 --    14 C    0.951
    66   1 H    0.999 --    16 C    0.958
    67   1 H    0.999 --    17 C    0.969
    68   1 H    0.972 --    18 N    0.928
    69   1 H    0.996 --    19 C    0.968
    70   1 H    0.998 --    19 C    0.971
    71   1 H    0.999 --    20 C    0.965
    72   1 H    0.999 --    21 C    0.962
    73   1 H    0.997 --    23 C    0.969
    74   1 H    0.996 --    23 C    0.965
    75   1 H    0.998 --    24 C    0.966
    76   1 H    0.996 --    25 C    0.946
    77   1 H    0.998 --    27 C    0.972
    78   1 H    1.000 --    27 C    0.958
    79   1 H    0.966 --    28 N    0.915
    80   1 H    1.000 --    29 C    0.967
    81   1 H    0.993 --    29 C    0.971
    82   1 H    0.977 --    30 N    0.943
    83   1 H    0.994 --    32 C    0.970
    84   1 H    0.997 --    32 C    0.968
    85   1 H    0.993 --    34 C    0.937
    86   1 H    0.998 --    36 C    0.970
    87   1 H    0.998 --    36 C    0.958
    88   1 H    0.981 --    37 N    0.929
    89   1 H    0.969 --    38 N    0.949
    90   1 H    0.963 --    38 N    0.941
    91   1 H    0.997 --    40 C    0.970
    92   1 H    0.997 --    40 C    0.977
    93   1 H    0.972 --    41 N    0.936
    94   1 H    0.995 --    42 C    0.968
    95   1 H    0.997 --    42 C    0.965
    96   1 H    0.997 --    44 C    0.975
    97   1 H    0.997 --    44 C    0.977
    98   1 H    0.991 --    47 N    0.960
    99   1 H    0.976 --    48 N    0.954
   100   1 H    0.964 --    48 N    0.948
   101   1 H    0.999 --    49 C    0.964
   102   1 H    0.914 --    50 O    0.903
   103   1 H    0.996 --    51 C    0.978
   104   1 H    0.996 --    51 C    0.978
   105   1 H    0.999 --    51 C    0.981
   106   1 H    0.998 --    52 C    0.972
   107   1 H    0.997 --    52 C    0.962
   108   1 H    0.998 --    53 C    0.973
   109   1 H    0.998 --    53 C    0.971
   110   1 H    0.999 --    54 C    0.971
   111   1 H    0.999 --    54 C    0.973
   112   1 H    1.000 --    55 C    0.968
   113   1 H    1.000 --    55 C    0.958
   114   1 H    0.980 --    56 N    0.965
   115   1 H    0.978 --    56 N    0.967
 ---------------------------------------------------------------------------

Topologies differ in total number of bonds
Writing topology from bond orders to xtbtopo.mol

molecular dipole:
                 x           y           z       tot (Debye)
 q only:        0.764      -1.390      -1.619
   full:        1.316      -2.081      -1.533       7.373
molecular quadrupole (traceless):
                xx          xy          yy          xz          yz          zz
 q only:      -20.068      18.123      34.070     -19.824       9.882     -14.002
  q+dip:      -38.247      17.476      46.755     -32.590      11.297      -8.508
   full:      -39.334      18.561      46.814     -31.780      13.079      -7.479


           -------------------------------------------------
          | TOTAL ENERGY             -173.513318987117 Eh   |
          | GRADIENT NORM               0.370656148597 Eh/α |
          | HOMO-LUMO GAP               2.843601014761 eV   |
           -------------------------------------------------

------------------------------------------------------------------------
 * finished run on 2026/05/23 at 12:25:36.223     
------------------------------------------------------------------------
 total:
 * wall-time:     0 d,  0 h,  0 min, 22.573 sec
 *  cpu-time:     0 d,  0 h,  0 min, 26.030 sec
 * ratio c/w:     1.153 speedup
 SCF:
 * wall-time:     0 d,  0 h,  0 min, 21.701 sec
 *  cpu-time:     0 d,  0 h,  0 min, 24.989 sec
 * ratio c/w:     1.152 speedup

normal termination of xtb
