      -----------------------------------------------------------      
     |                   =====================                   |     
     |                           x T B                           |     
     |                   =====================                   |     
     |                         S. Grimme                         |     
     |          Mulliken Center for Theoretical Chemistry        |     
     |                    University of Bonn                     |     
      -----------------------------------------------------------      

   * xtb version 6.7.1 (edcfbbe) compiled by 'albert@albert-system' on 2024-07-22

   xtb is free software: you can redistribute it and/or modify it under
   the terms of the GNU Lesser General Public License as published by
   the Free Software Foundation, either version 3 of the License, or
   (at your option) any later version.
   
   xtb is distributed in the hope that it will be useful,
   but WITHOUT ANY WARRANTY; without even the implied warranty of
   MERCHANTABILITY or FITNESS FOR A PARTICULAR PURPOSE.  See the
   GNU Lesser General Public License for more details.
   
   Cite this work as:
   * C. Bannwarth, E. Caldeweyher, S. Ehlert, A. Hansen, P. Pracht,
     J. Seibert, S. Spicher, S. Grimme, WIREs Comput. Mol. Sci., 2020, 11,
     e01493. DOI: 10.1002/wcms.1493
   
   for GFN2-xTB:
   * C. Bannwarth, S. Ehlert and S. Grimme., J. Chem. Theory Comput., 2019,
     15, 1652-1671. DOI: 10.1021/acs.jctc.8b01176
   for GFN1-xTB:
   * S. Grimme, C. Bannwarth, P. Shushkov, J. Chem. Theory Comput., 2017,
     13, 1989-2009. DOI: 10.1021/acs.jctc.7b00118
   for GFN0-xTB:
   * P. Pracht, E. Caldeweyher, S. Ehlert, S. Grimme, ChemRxiv, 2019, preprint.
     DOI: 10.26434/chemrxiv.8326202.v1
   for GFN-FF:
   * S. Spicher and S. Grimme, Angew. Chem. Int. Ed., 2020, 59, 15665-15673.
     DOI: 10.1002/anie.202004239
   
   for ALPB and GBSA implicit solvation:
   * S. Ehlert, M. Stahn, S. Spicher, S. Grimme, J. Chem. Theory Comput.,
     2021, 17, 4250-4261. DOI: 10.1021/acs.jctc.1c00471
   
   for ddCOSMO and CPCM-X implicit solvation:
   * M. Stahn, S. Ehlert, S. Grimme, J. Phys. Chem. A,
     2023, XX, XXXX-XXXX. DOI: 10.1021/acs.jpca.3c04382
   
   for DFT-D4:
   * E. Caldeweyher, C. Bannwarth and S. Grimme, J. Chem. Phys., 2017,
     147, 034112. DOI: 10.1063/1.4993215
   * E. Caldeweyher, S. Ehlert, A. Hansen, H. Neugebauer, S. Spicher,
     C. Bannwarth and S. Grimme, J. Chem. Phys., 2019, 150, 154122.
     DOI: 10.1063/1.5090222
   * E. Caldeweyher, J.-M. Mewes, S. Ehlert and S. Grimme, Phys. Chem. Chem. Phys.
     2020, 22, 8499-8512. DOI: 10.1039/D0CP00502A
   
   for sTDA-xTB:
   * S. Grimme and C. Bannwarth, J. Chem. Phys., 2016, 145, 054103.
     DOI: 10.1063/1.4959605
   
   in the mass-spec context:
   * V. Asgeirsson, C. Bauer and S. Grimme, Chem. Sci., 2017, 8, 4879.
     DOI: 10.1039/c7sc00601b
   * J. Koopman and S. Grimme, ACS Omega 2019, 4, 12, 15120-15133.
     DOI: 10.1021/acsomega.9b02011
   
   for metadynamics refer to:
   * S. Grimme, J. Chem. Theory Comput., 2019, 155, 2847-2862
     DOI: 10.1021/acs.jctc.9b00143
   
   for SPH calculations refer to:
   * S. Spicher and S. Grimme, J. Chem. Theory Comput., 2021, 17, 1701-1714
     DOI: 10.1021/acs.jctc.0c01306
   
   for ONIOM refer to:
   * C. Plett, A. Katbashev, S. Ehlert, S. Grimme, M. Bursch,
     Phys. Chem. Chem. Phys., 2023, 25, 17860-17868. DOI: 10.1039/D3CP02178E
   
   for DIPRO refer to:
   * J. Kohn, N. Gildemeister, S. Grimme, D. Fazzi, A. Hansen,
     J. Chem. Phys., 2023, just accepted.
   
   for PTB refer to:
   * S. Grimme, M. Mueller, A. Hansen, J. Chem. Phys., 2023, 158, 124111.
     DOI: 10.1063/5.0137838
   
   with help from (in alphabetical order)
   P. Atkinson, C. Bannwarth, F. Bohle, G. Brandenburg, E. Caldeweyher
   M. Checinski, S. Dohm, S. Ehlert, S. Ehrlich, I. Gerasimov, C. Hölzer
   A. Katbashev, J. Kohn, J. Koopman, C. Lavigne, S. Lehtola, F. März, M. Müller,
   F. Musil, H. Neugebauer, J. Pisarek, C. Plett, P. Pracht, F. Pultar,
   J. Seibert, P. Shushkov, S. Spicher, M. Stahn, M. Steiner, T. Strunk,
   J. Stückrath, T. Rose, and J. Unsleber
   
 * started run on 2026/05/23 at 12:37:11.906     
   ID    Z sym.   atoms
    1    7 N      1, 5, 10, 17, 22, 26, 27, 33, 41
    2    6 C      2, 3, 6-8, 11-14, 16, 18-21, 23, 28-30, 34-39
    3    8 O      4, 9, 15, 24, 25, 31, 32, 40
    4    1 H      42-82

           -------------------------------------------------
          |                Calculation Setup                |
           -------------------------------------------------

          program call               : /home/xchen/software/xtb-6.7.1/xtb-dist/bin/xtb /home/xchen/Test/benchmark/md_sampled/09_5_0584_0/snap_0109.xyz --charge 0 --gfn 2 --norestart
          coordinate file            : /home/xchen/Test/benchmark/md_sampled/09_5_0584_0/snap_0109.xyz
          omp threads                :                    48


           -------------------------------------------------
          |                 G F N 2 - x T B                 |
           -------------------------------------------------

        Reference                      10.1021/acs.jctc.8b01176
      * Hamiltonian:
        H0-scaling (s, p, d)           1.850000    2.230000    2.230000
        zeta-weighting                 0.500000
      * Dispersion:
        s8                             2.700000
        a1                             0.520000
        a2                             5.000000
        s9                             5.000000
      * Repulsion:
        kExp                           1.500000    1.000000
        rExp                           1.000000
      * Coulomb:
        alpha                          2.000000
        third order                    shell-resolved
        anisotropic                    true
        a3                             3.000000
        a5                             4.000000
        cn-shift                       1.200000
        cn-exp                         4.000000
        max-rad                        5.000000


          ...................................................
          :                      SETUP                      :
          :.................................................:
          :  # basis functions                 205          :
          :  # atomic orbitals                 205          :
          :  # shells                          123          :
          :  # electrons                       230          :
          :  max. iterations                   250          :
          :  Hamiltonian                  GFN2-xTB          :
          :  restarted?                      false          :
          :  GBSA solvation                  false          :
          :  PC potential                    false          :
          :  electronic temp.          300.0000000     K    :
          :  accuracy                    1.0000000          :
          :  -> integral cutoff          0.2500000E+02      :
          :  -> integral neglect         0.1000000E-07      :
          :  -> SCF convergence          0.1000000E-05 Eh   :
          :  -> wf. convergence          0.1000000E-03 e    :
          :  Broyden damping             0.4000000          :
          :  net charge                          0          :
          :  unpaired electrons                  0          :
          ...................................................

 iter      E             dE          RMSdq      gap      omega  full diag
   1   -132.0651538 -0.132065E+03  0.433E+00    3.93       0.0  T
   2   -132.5230057 -0.457852E+00  0.223E+00    3.39       1.0  T
   3   -132.5453641 -0.223585E-01  0.129E+00    3.60       1.0  T
   4   -132.5463017 -0.937561E-03  0.286E-01    3.07       1.0  T
   5   -132.5516191 -0.531736E-02  0.950E-02    3.14       1.0  T
   6   -132.5516574 -0.383317E-04  0.424E-02    3.12       1.0  T
   7   -132.5516686 -0.112562E-04  0.161E-02    3.13       1.0  T
   8   -132.5516760 -0.735534E-05  0.574E-03    3.13       1.9  T
   9   -132.5516764 -0.378816E-06  0.230E-03    3.13       4.8  T
  10   -132.5516764 -0.469716E-07  0.884E-04    3.13      12.5  T
  11   -132.5516764 -0.181413E-07  0.285E-04    3.13      38.7  T

   *** convergence criteria satisfied after 11 iterations ***

         #    Occupation            Energy/Eh            Energy/eV
      -------------------------------------------------------------
         1        2.0000           -0.7203078             -19.6006
       ...           ...                  ...                  ...
       109        2.0000           -0.4113630             -11.1938
       110        2.0000           -0.4046961             -11.0123
       111        2.0000           -0.4045766             -11.0091
       112        2.0000           -0.4033936             -10.9769
       113        2.0000           -0.3949095             -10.7460
       114        2.0000           -0.3855156             -10.4904
       115        2.0000           -0.3737198             -10.1694 (HOMO)
       116                         -0.2588033              -7.0424 (LUMO)
       117                         -0.2530220              -6.8851
       118                         -0.2489780              -6.7750
       119                         -0.2469346              -6.7194
       120                         -0.2427807              -6.6064
       ...                                ...                  ...
       205                          0.7531384              20.4939
      -------------------------------------------------------------
                  HL-Gap            0.1149165 Eh            3.1270 eV
             Fermi-level           -0.3162615 Eh           -8.6059 eV

 SCC (total)                   0 d,  0 h,  0 min,  8.301 sec
 SCC setup                      ...        0 min,  0.037 sec (  0.443%)
 Dispersion                     ...        0 min,  0.150 sec (  1.808%)
 classical contributions        ...        0 min,  0.007 sec (  0.081%)
 integral evaluation            ...        0 min,  0.275 sec (  3.315%)
 iterations                     ...        0 min,  7.383 sec ( 88.944%)
 molecular gradient             ...        0 min,  0.440 sec (  5.306%)
 printout                       ...        0 min,  0.008 sec (  0.102%)

         :::::::::::::::::::::::::::::::::::::::::::::::::::::
         ::                     SUMMARY                     ::
         :::::::::::::::::::::::::::::::::::::::::::::::::::::
         :: total energy            -131.070447732355 Eh    ::
         :: gradient norm              0.374820408390 Eh/a0 ::
         :: HOMO-LUMO gap              3.127037819574 eV    ::
         ::.................................................::
         :: SCC energy              -132.549006360874 Eh    ::
         :: -> isotropic ES            0.326545479101 Eh    ::
         :: -> anisotropic ES          0.014115843506 Eh    ::
         :: -> anisotropic XC          0.042373332753 Eh    ::
         :: -> dispersion             -0.089226551447 Eh    ::
         :: repulsion energy           1.478558628519 Eh    ::
         :: add. restraining           0.000000000000 Eh    ::
         :: total charge              -0.000000000000 e     ::
         :::::::::::::::::::::::::::::::::::::::::::::::::::::

           -------------------------------------------------
          |                Property Printout                |
           -------------------------------------------------

    * Orbital Energies and Occupations

         #    Occupation            Energy/Eh            Energy/eV
      -------------------------------------------------------------
         1        2.0000           -0.7203078             -19.6006
       ...           ...                  ...                  ...
       103        2.0000           -0.4283072             -11.6548
       104        2.0000           -0.4252345             -11.5712
       105        2.0000           -0.4250900             -11.5673
       106        2.0000           -0.4231007             -11.5132
       107        2.0000           -0.4199175             -11.4265
       108        2.0000           -0.4138282             -11.2608
       109        2.0000           -0.4113630             -11.1938
       110        2.0000           -0.4046961             -11.0123
       111        2.0000           -0.4045766             -11.0091
       112        2.0000           -0.4033936             -10.9769
       113        2.0000           -0.3949095             -10.7460
       114        2.0000           -0.3855156             -10.4904
       115        2.0000           -0.3737198             -10.1694 (HOMO)
       116                         -0.2588033              -7.0424 (LUMO)
       117                         -0.2530220              -6.8851
       118                         -0.2489780              -6.7750
       119                         -0.2469346              -6.7194
       120                         -0.2427807              -6.6064
       121                         -0.2370255              -6.4498
       122                         -0.2287009              -6.2233
       123                         -0.2069173              -5.6305
       124                         -0.0862373              -2.3466
       125                         -0.0459140              -1.2494
       126                         -0.0429879              -1.1698
       ...                                ...                  ...
       205                          0.7531384              20.4939
      -------------------------------------------------------------
                  HL-Gap            0.1149165 Eh            3.1270 eV
             Fermi-level           -0.3162615 Eh           -8.6059 eV

     #   Z          covCN         q      C6AA      α(0)
     1   7 N        2.709    -0.182    24.938     7.417
     2   6 C        3.771     0.009    20.455     6.445
     3   6 C        2.767     0.254    22.730     7.808
     4   8 O        0.858    -0.470    23.132     6.448
     5   7 N        2.685    -0.170    24.671     7.377
     6   6 C        3.786     0.024    20.178     6.398
     7   6 C        2.767     0.281    22.240     7.723
     8   6 C        3.807     0.021    20.223     6.402
     9   8 O        0.865    -0.418    22.044     6.295
    10   7 N        2.682    -0.215    25.695     7.529
    11   6 C        3.816    -0.058    21.601     6.615
    12   6 C        2.750     0.252    22.757     7.811
    13   6 C        3.792    -0.065    21.750     6.641
    14   6 C        3.794     0.031    20.052     6.377
    15   8 O        0.857    -0.418    22.036     6.294
    16   6 C        3.762    -0.069    21.862     6.665
    17   7 N        2.688    -0.132    23.866     7.256
    18   6 C        3.807    -0.101    22.418     6.740
    19   6 C        3.715     0.017    20.406     6.454
    20   6 C        2.753     0.258    22.662     7.795
    21   6 C        2.745     0.277    22.321     7.736
    22   7 N        2.628    -0.375    29.691     8.093
    23   6 C        3.768     0.036    20.005     6.374
    24   8 O        0.856    -0.469    23.115     6.446
    25   8 O        0.857    -0.442    22.545     6.366
    26   7 N        2.641    -0.288    27.436     7.779
    27   7 N        2.692    -0.174    24.771     7.392
    28   6 C        3.818    -0.094    22.285     6.718
    29   6 C        2.744     0.247    22.858     7.828
    30   6 C        2.741     0.276    22.323     7.736
    31   8 O        0.858    -0.422    22.117     6.305
    32   8 O        0.857    -0.419    22.056     6.297
    33   7 N        2.629    -0.259    26.725     7.678
    34   6 C        3.816    -0.015    20.837     6.497
    35   6 C        3.758    -0.126    22.963     6.832
    36   6 C        3.734    -0.111    22.725     6.804
    37   6 C        3.782    -0.054    21.571     6.616
    38   6 C        3.816    -0.099    22.368     6.731
    39   6 C        2.747     0.285    22.165     7.709
    40   8 O        0.859    -0.391    21.500     6.217
    41   7 N        2.627    -0.311    28.012     7.860
    42   1 H        0.858     0.195     1.131     1.666
    43   1 H        0.923     0.047     2.360     2.402
    44   1 H        0.860     0.189     1.163     1.689
    45   1 H        0.924     0.074     2.043     2.235
    46   1 H        0.926     0.094     1.842     2.123
    47   1 H        0.860     0.202     1.096     1.640
    48   1 H        0.915     0.032     2.567     2.506
    49   1 H        0.926     0.065     2.142     2.289
    50   1 H        0.920     0.034     2.532     2.488
    51   1 H        0.928     0.044     2.402     2.424
    52   1 H        0.925     0.084     1.940     2.178
    53   1 H        0.893     0.041     2.446     2.447
    54   1 H        0.926     0.065     2.139     2.287
    55   1 H        0.862     0.211     1.052     1.607
    56   1 H        0.921     0.087     1.908     2.160
    57   1 H        0.928     0.060     2.198     2.318
    58   1 H        0.915     0.008     2.928     2.676
    59   1 H        0.925     0.016     2.795     2.614
    60   1 H        0.862     0.158     1.351     1.820
    61   1 H        0.861     0.152     1.384     1.843
    62   1 H        0.903     0.079     1.990     2.207
    63   1 H        0.862     0.204     1.086     1.632
    64   1 H        0.862     0.194     1.135     1.669
    65   1 H        0.860     0.216     1.028     1.588
    66   1 H        0.925     0.052     2.289     2.366
    67   1 H        0.929     0.099     1.791     2.093
    68   1 H        0.856     0.175     1.241     1.745
    69   1 H        0.860     0.195     1.131     1.666
    70   1 H        0.919     0.045     2.383     2.414
    71   1 H        0.927     0.041     2.438     2.442
    72   1 H        0.928     0.055     2.260     2.351
    73   1 H        0.927     0.064     2.152     2.294
    74   1 H        0.904     0.043     2.414     2.431
    75   1 H        0.928     0.067     2.124     2.279
    76   1 H        0.923     0.047     2.360     2.403
    77   1 H        0.892     0.054     2.277     2.361
    78   1 H        0.927     0.065     2.136     2.285
    79   1 H        0.928     0.080     1.974     2.197
    80   1 H        0.928     0.078     1.998     2.210
    81   1 H        0.855     0.194     1.138     1.671
    82   1 H        0.859     0.172     1.260     1.758

 Mol. C6AA /au·bohr⁶  :      63014.068974
 Mol. C8AA /au·bohr⁸  :    1391235.905216
 Mol. α(0) /au        :        373.981070


Wiberg/Mayer (AO) data.
largest (>0.10) Wiberg bond orders for each atom

 ---------------------------------------------------------------------------
     #   Z sym  total        # sym  WBO       # sym  WBO       # sym  WBO
 ---------------------------------------------------------------------------
     1   7 N    3.430 --     7 C    1.258     2 C    0.978    42 H    0.914
                             9 O    0.192
     2   6 C    3.955 --     1 N    0.978    43 H    0.957     3 C    0.944
                            34 C    0.922
     3   6 C    3.949 --     4 O    1.599     5 N    1.331     2 C    0.944
     4   8 O    1.948 --     3 C    1.599     5 N    0.194
     5   7 N    3.481 --     3 C    1.331     6 C    0.940    44 H    0.929
                             4 O    0.194
     6   6 C    3.956 --    37 C    1.004    45 H    0.961     5 N    0.940
                            29 C    0.922
     7   6 C    3.952 --     9 O    1.702     1 N    1.258     8 C    0.917
     8   6 C    3.959 --    11 C    0.997    10 N    0.968    46 H    0.938
                             7 C    0.917
     9   8 O    2.026 --     7 C    1.702     1 N    0.192
    10   7 N    3.387 --    12 C    1.229     8 C    0.968    47 H    0.907
                            15 O    0.198
    11   6 C    3.992 --    13 C    1.005     8 C    0.997    49 H    0.965
                            48 H    0.965
    12   6 C    3.956 --    15 O    1.709    10 N    1.229    14 C    0.935
    13   6 C    3.992 --    11 C    1.005    16 C    0.995    51 H    0.979
                            50 H    0.974
    14   6 C    3.964 --    17 N    0.992    18 C    0.968    52 H    0.953
                            12 C    0.935
    15   8 O    2.019 --    12 C    1.709    10 N    0.198
    16   6 C    3.987 --    19 C    1.005    13 C    0.995    53 H    0.975
                            54 H    0.966
    17   7 N    3.500 --    20 C    1.306    14 C    0.992    55 H    0.929
                            24 O    0.192
    18   6 C    3.991 --    21 C    0.996    14 C    0.968    57 H    0.967
                            56 H    0.930
    19   6 C    3.982 --    16 C    1.005    22 N    0.997    59 H    0.981
                            58 H    0.978
    20   6 C    3.949 --    24 O    1.625    17 N    1.306    23 C    0.930
    21   6 C    3.951 --    25 O    1.693    26 N    1.226    18 C    0.996
    22   7 N    2.968 --    19 C    0.997    61 H    0.970    60 H    0.962
    23   6 C    3.969 --    27 N    1.004    28 C    0.959    62 H    0.945
                            20 C    0.930
    24   8 O    1.959 --    20 C    1.625    17 N    0.192
    25   8 O    1.981 --    21 C    1.693    26 N    0.182
    26   7 N    3.329 --    21 C    1.226    63 H    0.942    64 H    0.941
                            25 O    0.182
    27   7 N    3.440 --    29 C    1.251    23 C    1.004    65 H    0.901
                            31 O    0.196
    28   6 C    3.990 --    66 H    0.969    30 C    0.967    23 C    0.959
                            67 H    0.956
    29   6 C    3.949 --    31 O    1.694    27 N    1.251     6 C    0.922
    30   6 C    3.949 --    32 O    1.709    33 N    1.244    28 C    0.967
    31   8 O    2.009 --    29 C    1.694    27 N    0.196
    32   8 O    2.005 --    30 C    1.709    33 N    0.194
    33   7 N    3.357 --    30 C    1.244    68 H    0.945    69 H    0.940
                            32 O    0.194
    34   6 C    3.981 --    36 C    1.022    35 C    1.005    70 H    0.968
                             2 C    0.922
    35   6 C    3.990 --    34 C    1.005    71 H    0.985    72 H    0.985
                            73 H    0.981
    36   6 C    3.991 --    34 C    1.022    74 H    0.984    75 H    0.977
                            76 H    0.976
    37   6 C    3.987 --     6 C    1.004    38 C    0.979    78 H    0.967
                            77 H    0.959
    38   6 C    3.991 --    39 C    0.984    37 C    0.979    80 H    0.969
                            79 H    0.961
    39   6 C    3.943 --    40 O    1.771    41 N    1.157    38 C    0.984
    40   8 O    2.061 --    39 C    1.771    41 N    0.184
    41   7 N    3.266 --    39 C    1.157    82 H    0.946    81 H    0.943
                            40 O    0.184
    42   1 H    0.962 --     1 N    0.914
    43   1 H    0.998 --     2 C    0.957
    44   1 H    0.964 --     5 N    0.929
    45   1 H    0.994 --     6 C    0.961
    46   1 H    0.991 --     8 C    0.938
    47   1 H    0.959 --    10 N    0.907
    48   1 H    0.999 --    11 C    0.965
    49   1 H    0.995 --    11 C    0.965
    50   1 H    0.999 --    13 C    0.974
    51   1 H    0.998 --    13 C    0.979
    52   1 H    0.992 --    14 C    0.953
    53   1 H    0.998 --    16 C    0.975
    54   1 H    0.996 --    16 C    0.966
    55   1 H    0.955 --    17 N    0.929
    56   1 H    0.992 --    18 C    0.930
    57   1 H    0.996 --    18 C    0.967
    58   1 H    1.000 --    19 C    0.978
    59   1 H    1.000 --    19 C    0.981
    60   1 H    0.975 --    22 N    0.962
    61   1 H    0.977 --    22 N    0.970
    62   1 H    0.994 --    23 C    0.945
    63   1 H    0.958 --    26 N    0.942
    64   1 H    0.962 --    26 N    0.941
    65   1 H    0.953 --    27 N    0.901
    66   1 H    0.997 --    28 C    0.969
    67   1 H    0.990 --    28 C    0.956
    68   1 H    0.969 --    33 N    0.945
    69   1 H    0.961 --    33 N    0.940
    70   1 H    0.997 --    34 C    0.968
    71   1 H    0.998 --    35 C    0.985
    72   1 H    0.997 --    35 C    0.985
    73   1 H    0.996 --    35 C    0.981
    74   1 H    0.998 --    36 C    0.984
    75   1 H    0.996 --    36 C    0.977
    76   1 H    0.997 --    36 C    0.976
    77   1 H    0.997 --    37 C    0.959
    78   1 H    0.996 --    37 C    0.967
    79   1 H    0.994 --    38 C    0.961
    80   1 H    0.994 --    38 C    0.969
    81   1 H    0.962 --    41 N    0.943
    82   1 H    0.970 --    41 N    0.946
 ---------------------------------------------------------------------------

Topologies differ in total number of bonds
Writing topology from bond orders to xtbtopo.mol

molecular dipole:
                 x           y           z       tot (Debye)
 q only:       -1.001       1.094      -2.648
   full:       -1.314       1.129      -2.817       8.406
molecular quadrupole (traceless):
                xx          xy          yy          xz          yz          zz
 q only:        1.812     -13.405      18.713      -3.928     -17.229     -20.525
  q+dip:      -10.540      -8.258      27.737      -3.045     -19.027     -17.197
   full:       -9.355      -8.078      27.706      -3.279     -19.652     -18.351


           -------------------------------------------------
          | TOTAL ENERGY             -131.070447732355 Eh   |
          | GRADIENT NORM               0.374820408390 Eh/α |
          | HOMO-LUMO GAP               3.127037819574 eV   |
           -------------------------------------------------

------------------------------------------------------------------------
 * finished run on 2026/05/23 at 12:37:20.819     
------------------------------------------------------------------------
 total:
 * wall-time:     0 d,  0 h,  0 min,  8.912 sec
 *  cpu-time:     0 d,  0 h,  0 min, 16.132 sec
 * ratio c/w:     1.810 speedup
 SCF:
 * wall-time:     0 d,  0 h,  0 min,  8.301 sec
 *  cpu-time:     0 d,  0 h,  0 min, 15.321 sec
 * ratio c/w:     1.846 speedup

normal termination of xtb
