      -----------------------------------------------------------      
     |                   =====================                   |     
     |                           x T B                           |     
     |                   =====================                   |     
     |                         S. Grimme                         |     
     |          Mulliken Center for Theoretical Chemistry        |     
     |                    University of Bonn                     |     
      -----------------------------------------------------------      

   * xtb version 6.7.1 (26dd68d) compiled by 'froitzheim@fs7' on 2026-05-14

   xtb is free software: you can redistribute it and/or modify it under
   the terms of the GNU Lesser General Public License as published by
   the Free Software Foundation, either version 3 of the License, or
   (at your option) any later version.
   
   xtb is distributed in the hope that it will be useful,
   but WITHOUT ANY WARRANTY; without even the implied warranty of
   MERCHANTABILITY or FITNESS FOR A PARTICULAR PURPOSE.  See the
   GNU Lesser General Public License for more details.
   
   Cite this work as:
   * C. Bannwarth, E. Caldeweyher, S. Ehlert, A. Hansen, P. Pracht,
     J. Seibert, S. Spicher, S. Grimme, WIREs Comput. Mol. Sci., 2020, 11,
     e01493. DOI: 10.1002/wcms.1493
   
   for g-xTB:
   * T. Froitzheim, M. Müller, A. Hansen, S. Grimme, ChemRxiv, 2025, preprint.
     DOI: 10.26434/chemrxiv-2025-bjxv
   for GFN2-xTB:
   * C. Bannwarth, S. Ehlert and S. Grimme., J. Chem. Theory Comput., 2019,
     15, 1652-1671. DOI: 10.1021/acs.jctc.8b01176
   for GFN1-xTB:
   * S. Grimme, C. Bannwarth, P. Shushkov, J. Chem. Theory Comput., 2017,
     13, 1989-2009. DOI: 10.1021/acs.jctc.7b00118
   for GFN0-xTB:
   * P. Pracht, E. Caldeweyher, S. Ehlert, S. Grimme, ChemRxiv, 2019, preprint.
     DOI: 10.26434/chemrxiv.8326202.v1
   for GFN-FF:
   * S. Spicher and S. Grimme, Angew. Chem. Int. Ed., 2020, 59, 15665-15673.
     DOI: 10.1002/anie.202004239
   
   for ALPB and GBSA implicit solvation:
   * S. Ehlert, M. Stahn, S. Spicher, S. Grimme, J. Chem. Theory Comput.,
     2021, 17, 4250-4261. DOI: 10.1021/acs.jctc.1c00471
   
   for ddCOSMO and CPCM-X implicit solvation:
   * M. Stahn, S. Ehlert, S. Grimme, J. Phys. Chem. A,
     2023, XX, XXXX-XXXX. DOI: 10.1021/acs.jpca.3c04382
   
   for DFT-D4:
   * E. Caldeweyher, C. Bannwarth and S. Grimme, J. Chem. Phys., 2017,
     147, 034112. DOI: 10.1063/1.4993215
   * E. Caldeweyher, S. Ehlert, A. Hansen, H. Neugebauer, S. Spicher,
     C. Bannwarth and S. Grimme, J. Chem. Phys., 2019, 150, 154122.
     DOI: 10.1063/1.5090222
   * E. Caldeweyher, J.-M. Mewes, S. Ehlert and S. Grimme, Phys. Chem. Chem. Phys.
     2020, 22, 8499-8512. DOI: 10.1039/D0CP00502A
   
   for sTDA-xTB:
   * S. Grimme and C. Bannwarth, J. Chem. Phys., 2016, 145, 054103.
     DOI: 10.1063/1.4959605
   
   in the mass-spec context:
   * V. Asgeirsson, C. Bauer and S. Grimme, Chem. Sci., 2017, 8, 4879.
     DOI: 10.1039/c7sc00601b
   * J. Koopman and S. Grimme, ACS Omega 2019, 4, 12, 15120-15133.
     DOI: 10.1021/acsomega.9b02011
   
   for metadynamics refer to:
   * S. Grimme, J. Chem. Theory Comput., 2019, 155, 2847-2862
     DOI: 10.1021/acs.jctc.9b00143
   
   for SPH calculations refer to:
   * S. Spicher and S. Grimme, J. Chem. Theory Comput., 2021, 17, 1701-1714
     DOI: 10.1021/acs.jctc.0c01306
   
   for ONIOM refer to:
   * C. Plett, A. Katbashev, S. Ehlert, S. Grimme, M. Bursch,
     Phys. Chem. Chem. Phys., 2023, 25, 17860-17868. DOI: 10.1039/D3CP02178E
   
   for DIPRO refer to:
   * J. Kohn, N. Gildemeister, S. Grimme, D. Fazzi, A. Hansen,
     J. Chem. Phys. 159, 144106 (2023). DOI: 10.1063/5.0167484
   
   for PTB refer to:
   * S. Grimme, M. Mueller, A. Hansen, J. Chem. Phys., 2023, 158, 124111.
     DOI: 10.1063/5.0137838
   
   with help from (in alphabetical order)
   P. Atkinson, C. Bannwarth, F. Bohle, G. Brandenburg, E. Caldeweyher,
   M. Checinski, S. Dohm, S. Ehlert, S. Ehrlich, M. Friede, T. Froitzheim,
   I. Gerasimov, C. Hölzer, A. Katbashev, J. Kohn, J. Koopman, C. Lavigne,
   S. Lehtola, F. März, M. Müller, F. Musil, H. Neugebauer, J. Pisarek,
   C. Plett, P. Pracht, F. Pultar, J. Seibert, P. Shushkov, S. Spicher,
   M. Stahn, M. Steiner, T. Strunk, J. Stückrath, T. Rose, and J. Unsleber
   
 * started run on 2026/05/23 at 12:34:29.029     
   ID    Z sym.   atoms
    1    7 N      1, 5, 10, 17, 18, 25, 30, 33
    2    6 C      2, 3, 6-8, 11-14, 19-23, 26-28, 31, 32, 34, 36-39
    3    8 O      4, 9, 15, 16, 24, 29, 35
    4    1 H      40-77

           -------------------------------------------------
          |                Calculation Setup                |
           -------------------------------------------------

          program call               : /home/xchen/software/xtb-6.7.1-gxtb/bin/xtb /home/xchen/Test/benchmark/md_sampled/05_5_0513_0/snap_0092.xyz --charge 0 --gxtb --norestart
          coordinate file            : /home/xchen/Test/benchmark/md_sampled/05_5_0513_0/snap_0092.xyz
          omp threads                :                    48

core increment energy         -1.7251241620057E+03 Eh
dispersion energy              1.7586649153272E-02 Eh
molecular charge               0.0000000000000E+00 e
number of electrons            2.1599999999805E+02 e
number of unpaired electrons   0.0000000000000E+00 e
wavefunction                   restricted
integral cutoff                2.6907767250513E+01 bohr
energy convergence             1.0000000000000E-06 Eh
density convergence            2.0000000000000E-05 e

------------------------------------------------------------
  cycle        total energy    energy error   density error
------------------------------------------------------------
      1     -1901.054516130  -1.7594794E+02   0.0000000E+00
      2     -1901.392836914  -3.3832078E-01   2.3261341E-02
      3     -1901.606456072  -2.1361916E-01   1.8409559E-02
      4     -1902.052333634  -4.4587756E-01   1.4617161E-02
      5     -1902.061237736  -8.9041023E-03   1.1411158E-03
      6     -1902.061876450  -6.3871422E-04   2.3014524E-04
      7     -1902.061933636  -5.7185115E-05   7.0737344E-05
      8     -1902.061938775  -5.1393207E-06   2.0868980E-05
      9     -1902.061939421  -6.4643874E-07   4.2420581E-06
------------------------------------------------------------

electronic energy             -1.7695536406473E+02 Eh
total energy                  -1.9020619394213E+03 Eh

Post processing:
 | Mayer-Wiberg bond orders
 | Molecular Multipole Moments

 total:                                  21.010 sec
 - increment                              0.000 sec (  0%)
 - repulsion                              0.042 sec (  0%)
 - dispersion                             0.487 sec (  2%)
 - coulomb                                0.133 sec (  0%)
 - exchange                               0.006 sec (  0%)
 - hamiltonian                           11.085 sec ( 52%)
 - acp                                    0.228 sec (  1%)
 - spin polarization                      0.000 sec (  0%)
 - post processing                        0.175 sec (  0%)
 - scc                                    7.694 sec ( 36%)
 - coulomb gradient                       0.094 sec (  0%)
 - dispersion gradient                    0.050 sec (  0%)
 - exchange gradient                      0.477 sec (  2%)
 - repulsion gradient                     0.017 sec (  0%)
 - acp gradient                           0.312 sec (  1%)
 - hamiltonian gradient                   0.380 sec (  1%)
 - gradient                               1.329 sec (  6%)

         :::::::::::::::::::::::::::::::::::::::::::::::::::::
         ::                     SUMMARY                     ::
         :::::::::::::::::::::::::::::::::::::::::::::::::::::
         :: total energy           -1902.061939421274 Eh    ::
         :: gradient norm              0.340475711243 Eh/a0 ::
         :: HOMO-LUMO gap              9.295689986983 eV    ::
         ::.................................................::
         :: add. restraining           0.000000000000 Eh    ::
         :: total charge              -0.000000000000 e     ::
         :::::::::::::::::::::::::::::::::::::::::::::::::::::

           -------------------------------------------------
          |                Property Printout                |
           -------------------------------------------------

    * Orbital Energies and Occupations
------------------------------------------------------------------
      #    Occupation            Energy/Eh            Energy/eV
------------------------------------------------------------------
      1        2.0000           -1.3479754             -36.6803
    ...           ...                  ...                  ...
     96        2.0000           -0.3902770             -10.6200
     97        2.0000           -0.3897798             -10.6064
     98        2.0000           -0.3862521             -10.5105
     99        2.0000           -0.3842052             -10.4548
    100        2.0000           -0.3774354             -10.2705
    101        2.0000           -0.3755131             -10.2182
    102        2.0000           -0.3735118             -10.1638
    103        2.0000           -0.3705658             -10.0836
    104        2.0000           -0.3675226             -10.0008
    105        2.0000           -0.3659793              -9.9588
    106        2.0000           -0.3619852              -9.8501
    107        2.0000           -0.3540548              -9.6343
    108        2.0000           -0.3439181              -9.3585 (HOMO)
    109                         -0.0023078              -0.0628 (LUMO)
    110                          0.0075690               0.2060
    111                          0.0135862               0.3697
    112                          0.0236010               0.6422
    113                          0.0293054               0.7974
    114                          0.0351593               0.9567
    115                          0.0523283               1.4239
    116                          0.0616664               1.6780
    117                          0.0850447               2.3142
    118                          0.1510834               4.1112
    119                          0.1685217               4.5857
    ...                                ...                  ...
    194                          0.7724642              21.0198
------------------------------------------------------------------
               HL-Gap            0.3416103 Eh            9.2957 eV
------------------------------------------------------------------

Atomic charges and shell populations (in atomic units):
------------------------------------------------------
     #    Z                q          p(s)       p(p)
------------------------------------------------------
     1    7 N      -0.359122      1.363942   3.995180
     2    6 C      -0.031676      1.166162   2.865514
     3    6 C       0.419246      1.111196   2.469558
     4    8 O      -0.483380      1.857646   4.625733
     5    7 N      -0.364855      1.383729   3.981126
     6    6 C       0.007930      1.119596   2.872473
     7    6 C       0.414944      1.100170   2.484887
     8    6 C       0.006246      1.136695   2.857059
     9    8 O      -0.516202      1.859068   4.657133
    10    7 N      -0.330177      1.383040   3.947137
    11    6 C      -0.215398      1.156039   3.059360
    12    6 C       0.414850      1.101990   2.483160
    13    6 C       0.405347      1.104047   2.490606
    14    6 C       0.022727      1.124266   2.853007
    15    8 O      -0.562750      1.856079   4.706670
    16    8 O      -0.530734      1.857595   4.673140
    17    7 N      -0.413974      1.366342   4.047632
    18    7 N      -0.334179      1.351162   3.983018
    19    6 C      -0.108258      1.132321   2.975938
    20    6 C       0.407704      1.086323   2.505973
    21    6 C      -0.251245      1.165639   3.085606
    22    6 C      -0.219384      1.170423   3.048961
    23    6 C       0.011205      1.121307   2.867488
    24    8 O      -0.531574      1.850200   4.681374
    25    7 N      -0.309420      1.384108   3.925312
    26    6 C      -0.175614      1.132665   3.042950
    27    6 C       0.435722      1.124911   2.439368
    28    6 C       0.028556      1.123724   2.847720
    29    8 O      -0.564763      1.850439   4.714324
    30    7 N      -0.368226      1.594040   3.774186
    31    6 C      -0.110452      1.167921   2.942531
    32    6 C       0.111937      1.122290   2.765774
    33    7 N      -0.232163      1.360363   3.871800
    34    6 C       0.049164      1.152914   2.797921
    35    8 O      -0.520991      1.829792   4.691199
    36    6 C      -0.103701      1.133884   2.969818
    37    6 C      -0.259747      1.156778   3.102969
    38    6 C      -0.142196      1.156067   2.986130
    39    6 C      -0.283858      1.155816   3.128042
    40    1 H       0.259893      0.740107
    41    1 H       0.158187      0.841813
    42    1 H       0.256949      0.743051
    43    1 H       0.116385      0.883615
    44    1 H       0.143596      0.856404
    45    1 H       0.266459      0.733541
    46    1 H       0.110787      0.889213
    47    1 H       0.136748      0.863252
    48    1 H       0.139294      0.860706
    49    1 H       0.263300      0.736700
    50    1 H       0.257305      0.742695
    51    1 H       0.282834      0.717166
    52    1 H       0.096351      0.903649
    53    1 H       0.107691      0.892309
    54    1 H       0.072918      0.927082
    55    1 H       0.094869      0.905131
    56    1 H       0.088061      0.911939
    57    1 H       0.103319      0.896681
    58    1 H       0.059047      0.940953
    59    1 H       0.115837      0.884163
    60    1 H       0.267300      0.732700
    61    1 H       0.106529      0.893471
    62    1 H       0.119474      0.880526
    63    1 H       0.140966      0.859034
    64    1 H       0.119966      0.880034
    65    1 H       0.270700      0.729300
    66    1 H       0.092044      0.907956
    67    1 H       0.124639      0.875361
    68    1 H       0.347854      0.652146
    69    1 H       0.110544      0.889456
    70    1 H       0.091502      0.908498
    71    1 H       0.112994      0.887006
    72    1 H       0.106280      0.893720
    73    1 H       0.088489      0.911511
    74    1 H       0.089793      0.910207
    75    1 H       0.078849      0.921151
    76    1 H       0.090823      0.909177
    77    1 H       0.099888      0.900112
------------------------------------------------------


Wiberg/Mayer (AO) data.
largest (>0.10) Wiberg bond orders for each atom

 ---------------------------------------------------------------------------
     #   Z sym  total        # sym  WBO       # sym  WBO       # sym  WBO
 ---------------------------------------------------------------------------
     1   7 N    3.318 --     7 C    1.229     2 C    0.935    40 O    0.897
                             9 C    0.171
     2   6 C    3.901 --     3 C    0.944    34 C    0.939     1 N    0.935
                            41 O    0.925
     3   6 C    3.863 --     4 C    1.730     5 N    1.115     2 C    0.944
     4   8 C    2.010 --     3 C    1.730     5 N    0.143
     5   7 N    3.225 --     3 C    1.115     6 C    0.972    42 O    0.885
                             4 C    0.143
     6   6 C    3.936 --     5 N    0.972    36 C    0.957    43 O    0.938
                            27 C    0.930
     7   6 C    3.880 --     9 C    1.669     1 N    1.229     8 C    0.923
     8   6 C    3.926 --    11 C    1.001    44 O    0.932    10 N    0.932
                             7 C    0.923
     9   8 C    1.952 --     7 C    1.669     1 N    0.171
    10   7 N    3.316 --    12 C    1.243     8 C    0.932    45 O    0.877
                            15 C    0.160
    11   6 C    3.958 --     8 C    1.001    46 O    0.951    13 C    0.936
                            47 O    0.931
    12   6 C    3.870 --    15 C    1.620    10 N    1.243    14 C    0.930
    13   6 C    3.879 --    16 C    1.665    17 N    1.243    11 C    0.936
    14   6 C    3.929 --    18 N    0.971    19 C    0.958    48 O    0.931
                            12 C    0.930
    15   8 C    1.914 --    12 C    1.620    10 N    0.160
    16   8 C    1.939 --    13 C    1.665    17 N    0.171
    17   7 N    3.269 --    13 C    1.243    50 O    0.911    49 O    0.904
                            16 C    0.171
    18   7 N    3.358 --    20 C    1.264    14 C    0.971    51 O    0.863
                            24 C    0.170
    19   6 C    3.972 --    22 C    1.012    21 C    1.007    14 C    0.958
                            52 O    0.946
    20   6 C    3.888 --    24 C    1.649    18 N    1.264    23 C    0.908
    21   6 C    3.959 --    19 C    1.007    53 O    0.970    54 O    0.970
                            55 O    0.968
    22   6 C    3.957 --    19 C    1.012    58 O    0.976    56 O    0.970
                            57 O    0.966
    23   6 C    3.939 --    25 N    0.987    26 C    0.972    59 O    0.939
                            20 C    0.908
    24   8 C    1.940 --    20 C    1.649    18 N    0.170
    25   7 N    3.303 --    27 C    1.178    23 C    0.987    60 O    0.892
                            29 C    0.145
    26   6 C    3.966 --    28 C    1.015    23 C    0.972    61 O    0.955
                            62 O    0.939
    27   6 C    3.832 --    29 C    1.641    25 N    1.178     6 C    0.930
    28   6 C    3.954 --    31 C    1.596    30 N    1.231    26 C    1.015
    29   8 C    1.962 --    27 C    1.641    25 N    0.145
    30   7 N    2.972 --    32 C    1.505    28 C    1.231    33 N    0.107
    31   6 C    3.861 --    28 C    1.596    33 N    1.104    63 O    0.949
                            32 C    0.101
    32   6 C    3.920 --    30 N    1.505    33 N    1.333    64 O    0.941
                            31 C    0.101
    33   7 N    3.517 --    32 C    1.333    31 C    1.104    65 O    0.897
                            30 N    0.107
    34   6 C    3.885 --    35 C    0.991    66 O    0.957    67 O    0.953
                             2 C    0.939
    35   8 C    1.928 --    34 C    0.991    68 O    0.860
    36   6 C    3.967 --    37 C    1.011    38 C    0.978     6 C    0.957
                            69 O    0.944
    37   6 C    3.956 --    36 C    1.011    70 O    0.972    72 O    0.968
                            71 O    0.965
    38   6 C    3.962 --    39 C    1.018    36 C    0.978    73 O    0.960
                            74 O    0.958
    39   6 C    3.961 --    38 C    1.018    75 O    0.977    77 O    0.973
                            76 O    0.972
    40   1 O    0.932 --     1 N    0.897
    41   1 O    0.975 --     2 C    0.925
    42   1 O    0.934 --     5 N    0.885
    43   1 O    0.986 --     6 C    0.938
    44   1 O    0.979 --     8 C    0.932
    45   1 O    0.929 --    10 N    0.877
    46   1 O    0.988 --    11 C    0.951
    47   1 O    0.981 --    11 C    0.931
    48   1 O    0.981 --    14 C    0.931
    49   1 O    0.931 --    17 N    0.904
    50   1 O    0.934 --    17 N    0.911
    51   1 O    0.920 --    18 N    0.863
    52   1 O    0.991 --    19 C    0.946
    53   1 O    0.988 --    21 C    0.970
    54   1 O    0.995 --    21 C    0.970
    55   1 O    0.991 --    21 C    0.968
    56   1 O    0.992 --    22 C    0.970
    57   1 O    0.989 --    22 C    0.966
    58   1 O    0.997 --    22 C    0.976
    59   1 O    0.987 --    23 C    0.939
    60   1 O    0.929 --    25 N    0.892
    61   1 O    0.989 --    26 C    0.955
    62   1 O    0.986 --    26 C    0.939
    63   1 O    0.980 --    31 C    0.949
    64   1 O    0.986 --    32 C    0.941
    65   1 O    0.927 --    33 N    0.897
    66   1 O    0.992 --    34 C    0.957
    67   1 O    0.984 --    34 C    0.953
    68   1 O    0.879 --    35 C    0.860
    69   1 O    0.988 --    36 C    0.944
    70   1 O    0.992 --    37 C    0.972
    71   1 O    0.987 --    37 C    0.965
    72   1 O    0.989 --    37 C    0.968
    73   1 O    0.992 --    38 C    0.960
    74   1 O    0.992 --    38 C    0.958
    75   1 O    0.994 --    39 C    0.977
    76   1 O    0.992 --    39 C    0.972
    77   1 O    0.990 --    39 C    0.973
 ---------------------------------------------------------------------------

Topologies differ in total number of bonds
Writing topology from bond orders to xtbtopo.mol

Atomic dipole moments (in atomic units):
---------------------------------------------------------
     #    Z                 x            y            z
---------------------------------------------------------
           total    -3.801872    -2.692540    -2.238844
---------------------------------------------------------
         |total|     5.168794    13.137763 Debye


           -------------------------------------------------
          | TOTAL ENERGY            -1902.061939421274 Eh   |
          | GRADIENT NORM               0.340475711243 Eh/α |
           -------------------------------------------------

------------------------------------------------------------------------
 * finished run on 2026/05/23 at 12:34:50.970     
------------------------------------------------------------------------
 total:
 * wall-time:     0 d,  0 h,  0 min, 21.940 sec
 *  cpu-time:     0 d,  0 h,  0 min, 30.280 sec
 * ratio c/w:     1.380 speedup
 SCF:
 * wall-time:     0 d,  0 h,  0 min, 21.532 sec
 *  cpu-time:     0 d,  0 h,  0 min, 30.070 sec
 * ratio c/w:     1.397 speedup

normal termination of xtb
