      -----------------------------------------------------------      
     |                   =====================                   |     
     |                           x T B                           |     
     |                   =====================                   |     
     |                         S. Grimme                         |     
     |          Mulliken Center for Theoretical Chemistry        |     
     |                    University of Bonn                     |     
      -----------------------------------------------------------      

   * xtb version 6.7.1 (26dd68d) compiled by 'froitzheim@fs7' on 2026-05-14

   xtb is free software: you can redistribute it and/or modify it under
   the terms of the GNU Lesser General Public License as published by
   the Free Software Foundation, either version 3 of the License, or
   (at your option) any later version.
   
   xtb is distributed in the hope that it will be useful,
   but WITHOUT ANY WARRANTY; without even the implied warranty of
   MERCHANTABILITY or FITNESS FOR A PARTICULAR PURPOSE.  See the
   GNU Lesser General Public License for more details.
   
   Cite this work as:
   * C. Bannwarth, E. Caldeweyher, S. Ehlert, A. Hansen, P. Pracht,
     J. Seibert, S. Spicher, S. Grimme, WIREs Comput. Mol. Sci., 2020, 11,
     e01493. DOI: 10.1002/wcms.1493
   
   for g-xTB:
   * T. Froitzheim, M. Müller, A. Hansen, S. Grimme, ChemRxiv, 2025, preprint.
     DOI: 10.26434/chemrxiv-2025-bjxv
   for GFN2-xTB:
   * C. Bannwarth, S. Ehlert and S. Grimme., J. Chem. Theory Comput., 2019,
     15, 1652-1671. DOI: 10.1021/acs.jctc.8b01176
   for GFN1-xTB:
   * S. Grimme, C. Bannwarth, P. Shushkov, J. Chem. Theory Comput., 2017,
     13, 1989-2009. DOI: 10.1021/acs.jctc.7b00118
   for GFN0-xTB:
   * P. Pracht, E. Caldeweyher, S. Ehlert, S. Grimme, ChemRxiv, 2019, preprint.
     DOI: 10.26434/chemrxiv.8326202.v1
   for GFN-FF:
   * S. Spicher and S. Grimme, Angew. Chem. Int. Ed., 2020, 59, 15665-15673.
     DOI: 10.1002/anie.202004239
   
   for ALPB and GBSA implicit solvation:
   * S. Ehlert, M. Stahn, S. Spicher, S. Grimme, J. Chem. Theory Comput.,
     2021, 17, 4250-4261. DOI: 10.1021/acs.jctc.1c00471
   
   for ddCOSMO and CPCM-X implicit solvation:
   * M. Stahn, S. Ehlert, S. Grimme, J. Phys. Chem. A,
     2023, XX, XXXX-XXXX. DOI: 10.1021/acs.jpca.3c04382
   
   for DFT-D4:
   * E. Caldeweyher, C. Bannwarth and S. Grimme, J. Chem. Phys., 2017,
     147, 034112. DOI: 10.1063/1.4993215
   * E. Caldeweyher, S. Ehlert, A. Hansen, H. Neugebauer, S. Spicher,
     C. Bannwarth and S. Grimme, J. Chem. Phys., 2019, 150, 154122.
     DOI: 10.1063/1.5090222
   * E. Caldeweyher, J.-M. Mewes, S. Ehlert and S. Grimme, Phys. Chem. Chem. Phys.
     2020, 22, 8499-8512. DOI: 10.1039/D0CP00502A
   
   for sTDA-xTB:
   * S. Grimme and C. Bannwarth, J. Chem. Phys., 2016, 145, 054103.
     DOI: 10.1063/1.4959605
   
   in the mass-spec context:
   * V. Asgeirsson, C. Bauer and S. Grimme, Chem. Sci., 2017, 8, 4879.
     DOI: 10.1039/c7sc00601b
   * J. Koopman and S. Grimme, ACS Omega 2019, 4, 12, 15120-15133.
     DOI: 10.1021/acsomega.9b02011
   
   for metadynamics refer to:
   * S. Grimme, J. Chem. Theory Comput., 2019, 155, 2847-2862
     DOI: 10.1021/acs.jctc.9b00143
   
   for SPH calculations refer to:
   * S. Spicher and S. Grimme, J. Chem. Theory Comput., 2021, 17, 1701-1714
     DOI: 10.1021/acs.jctc.0c01306
   
   for ONIOM refer to:
   * C. Plett, A. Katbashev, S. Ehlert, S. Grimme, M. Bursch,
     Phys. Chem. Chem. Phys., 2023, 25, 17860-17868. DOI: 10.1039/D3CP02178E
   
   for DIPRO refer to:
   * J. Kohn, N. Gildemeister, S. Grimme, D. Fazzi, A. Hansen,
     J. Chem. Phys. 159, 144106 (2023). DOI: 10.1063/5.0167484
   
   for PTB refer to:
   * S. Grimme, M. Mueller, A. Hansen, J. Chem. Phys., 2023, 158, 124111.
     DOI: 10.1063/5.0137838
   
   with help from (in alphabetical order)
   P. Atkinson, C. Bannwarth, F. Bohle, G. Brandenburg, E. Caldeweyher,
   M. Checinski, S. Dohm, S. Ehlert, S. Ehrlich, M. Friede, T. Froitzheim,
   I. Gerasimov, C. Hölzer, A. Katbashev, J. Kohn, J. Koopman, C. Lavigne,
   S. Lehtola, F. März, M. Müller, F. Musil, H. Neugebauer, J. Pisarek,
   C. Plett, P. Pracht, F. Pultar, J. Seibert, P. Shushkov, S. Spicher,
   M. Stahn, M. Steiner, T. Strunk, J. Stückrath, T. Rose, and J. Unsleber
   
 * started run on 2026/05/23 at 12:59:29.850     
   ID    Z sym.   atoms
    1    7 N      1, 5, 10, 18, 28, 30, 37-39, 41, 47, 48, 56
    2    6 C      2, 3, 6-8, 11-14, 16, 17, 19-25, 27, 29, 31-34, 36, 40,
                  42-45, 49, 51-55
    3    8 O      4, 9, 15, 26, 35, 46, 50
    4    1 H      57-115

           -------------------------------------------------
          |                Calculation Setup                |
           -------------------------------------------------

          program call               : /home/xchen/software/xtb-6.7.1-gxtb/bin/xtb /home/xchen/Test/benchmark/md_sampled/03_6_0978_0/snap_0189.xyz --charge 0 --gxtb --norestart
          coordinate file            : /home/xchen/Test/benchmark/md_sampled/03_6_0978_0/snap_0189.xyz
          omp threads                :                    48

core increment energy         -2.3949795228626E+03 Eh
dispersion energy              2.4108042628889E-02 Eh
molecular charge               0.0000000000000E+00 e
number of electrons            3.0999999999720E+02 e
number of unpaired electrons   0.0000000000000E+00 e
wavefunction                   restricted
integral cutoff                2.6907767250513E+01 bohr
energy convergence             1.0000000000000E-06 Eh
density convergence            2.0000000000000E-05 e

------------------------------------------------------------
  cycle        total energy    energy error   density error
------------------------------------------------------------
      1     -2644.404252065  -2.4944884E+02   0.0000000E+00
      2     -2644.811590003  -4.0733794E-01   1.8462787E-02
      3     -2645.072039739  -2.6044974E-01   1.4622187E-02
      4     -2645.633881945  -5.6184221E-01   1.1643724E-02
      5     -2645.644210830  -1.0328885E-02   9.2361223E-04
      6     -2645.645011846  -8.0101593E-04   1.6576398E-04
      7     -2645.645090446  -7.8600110E-05   5.5023518E-05
      8     -2645.645094603  -4.1573329E-06   1.2640717E-05
      9     -2645.645095171  -5.6770492E-07   3.2153302E-06
------------------------------------------------------------

electronic energy             -2.5068968035090E+02 Eh
total energy                  -2.6456450951709E+03 Eh

Post processing:
 | Mayer-Wiberg bond orders
 | Molecular Multipole Moments

 total:                                  32.353 sec
 - increment                              0.000 sec (  0%)
 - repulsion                              0.008 sec (  0%)
 - dispersion                             0.555 sec (  1%)
 - coulomb                                0.152 sec (  0%)
 - exchange                               0.004 sec (  0%)
 - hamiltonian                           20.258 sec ( 62%)
 - acp                                    0.278 sec (  0%)
 - spin polarization                      0.000 sec (  0%)
 - post processing                        0.056 sec (  0%)
 - scc                                    9.803 sec ( 30%)
 - coulomb gradient                       0.109 sec (  0%)
 - dispersion gradient                    0.072 sec (  0%)
 - exchange gradient                      0.193 sec (  0%)
 - repulsion gradient                     0.006 sec (  0%)
 - acp gradient                           0.382 sec (  1%)
 - hamiltonian gradient                   0.478 sec (  1%)
 - gradient                               1.239 sec (  3%)

         :::::::::::::::::::::::::::::::::::::::::::::::::::::
         ::                     SUMMARY                     ::
         :::::::::::::::::::::::::::::::::::::::::::::::::::::
         :: total energy           -2645.645095170871 Eh    ::
         :: gradient norm              0.430133326247 Eh/a0 ::
         :: HOMO-LUMO gap              8.947921857849 eV    ::
         ::.................................................::
         :: add. restraining           0.000000000000 Eh    ::
         :: total charge               0.000000000000 e     ::
         :::::::::::::::::::::::::::::::::::::::::::::::::::::

           -------------------------------------------------
          |                Property Printout                |
           -------------------------------------------------

    * Orbital Energies and Occupations
------------------------------------------------------------------
      #    Occupation            Energy/Eh            Energy/eV
------------------------------------------------------------------
      1        2.0000           -1.3511435             -36.7665
    ...           ...                  ...                  ...
    143        2.0000           -0.3772807             -10.2663
    144        2.0000           -0.3740654             -10.1788
    145        2.0000           -0.3708145             -10.0904
    146        2.0000           -0.3702656             -10.0754
    147        2.0000           -0.3692315             -10.0473
    148        2.0000           -0.3646729              -9.9233
    149        2.0000           -0.3629298              -9.8758
    150        2.0000           -0.3611409              -9.8271
    151        2.0000           -0.3578421              -9.7374
    152        2.0000           -0.3559789              -9.6867
    153        2.0000           -0.3518172              -9.5734
    154        2.0000           -0.3423112              -9.3148
    155        2.0000           -0.3343138              -9.0971 (HOMO)
    156                         -0.0054837              -0.1492 (LUMO)
    157                         -0.0002030              -0.0055
    158                          0.0075968               0.2067
    159                          0.0087230               0.2374
    160                          0.0164708               0.4482
    161                          0.0286792               0.7804
    162                          0.0341274               0.9287
    163                          0.0376682               1.0250
    164                          0.0635196               1.7285
    165                          0.0829364               2.2568
    166                          0.1123718               3.0578
    ...                                ...                  ...
    283                          0.9168109              24.9477
------------------------------------------------------------------
               HL-Gap            0.3288301 Eh            8.9479 eV
------------------------------------------------------------------

Atomic charges and shell populations (in atomic units):
------------------------------------------------------
     #    Z                q          p(s)       p(p)
------------------------------------------------------
     1    7 N      -0.367782      1.370355   3.997427
     2    6 C      -0.016615      1.124613   2.892003
     3    6 C       0.425515      1.097835   2.476650
     4    8 O      -0.543957      1.851796   4.692162
     5    7 N      -0.327219      1.411380   3.915840
     6    6 C       0.016100      1.145143   2.838757
     7    6 C       0.425119      1.100601   2.474280
     8    6 C      -0.001730      1.144567   2.857163
     9    8 O      -0.509863      1.854682   4.655181
    10    7 N      -0.374750      1.401337   3.973413
    11    6 C      -0.162564      1.151205   3.011359
    12    6 C       0.407363      1.122926   2.469711
    13    6 C      -0.023903      1.121787   2.902116
    14    6 C       0.015764      1.131225   2.853011
    15    8 O      -0.520715      1.854994   4.665722
    16    6 C      -0.104569      1.159243   2.945326
    17    6 C      -0.119538      1.147923   2.971615
    18    7 N      -0.335863      1.370339   3.965524
    19    6 C      -0.163822      1.132780   3.031043
    20    6 C      -0.099953      1.147712   2.952241
    21    6 C      -0.114808      1.142417   2.972391
    22    6 C       0.413176      1.106961   2.479863
    23    6 C      -0.186359      1.147841   3.038518
    24    6 C      -0.089683      1.143259   2.946423
    25    6 C       0.001917      1.129682   2.868401
    26    8 O      -0.521735      1.851499   4.670236
    27    6 C      -0.090811      1.136975   2.953837
    28    7 N      -0.354560      1.388850   3.965710
    29    6 C      -0.197619      1.142715   3.054905
    30    7 N      -0.392511      1.380509   4.012002
    31    6 C       0.447545      1.111910   2.440545
    32    6 C      -0.168009      1.165425   3.002584
    33    6 C       0.288988      1.092038   2.618974
    34    6 C       0.009945      1.109858   2.880196
    35    8 O      -0.490742      1.853074   4.637668
    36    6 C      -0.077228      1.138667   2.938561
    37    7 N      -0.524000      1.623566   3.900433
    38    7 N      -0.453570      1.388743   4.064827
    39    7 N      -0.222684      1.320762   3.901922
    40    6 C      -0.187036      1.135786   3.051250
    41    7 N      -0.404401      1.423995   3.980405
    42    6 C      -0.049222      1.148272   2.900950
    43    6 C       0.422536      1.124412   2.453053
    44    6 C      -0.208500      1.155691   3.052809
    45    6 C       0.261020      1.094542   2.644438
    46    8 O      -0.557266      1.859673   4.697593
    47    7 N      -0.500990      1.596943   3.904047
    48    7 N      -0.470976      1.434661   4.036316
    49    6 C       0.107533      1.119760   2.772707
    50    8 O      -0.556923      1.811807   4.745117
    51    6 C      -0.270762      1.179069   3.091693
    52    6 C      -0.149683      1.150161   2.999522
    53    6 C      -0.161826      1.147049   3.014777
    54    6 C      -0.186528      1.152265   3.034263
    55    6 C      -0.124498      1.142810   2.981688
    56    7 N      -0.511005      1.500659   4.010346
    57    1 H       0.269923      0.730077
    58    1 H       0.137805      0.862195
    59    1 H       0.267371      0.732629
    60    1 H       0.127817      0.872183
    61    1 H       0.132003      0.867997
    62    1 H       0.270501      0.729499
    63    1 H       0.096101      0.903899
    64    1 H       0.135453      0.864547
    65    1 H       0.113445      0.886555
    66    1 H       0.096915      0.903085
    67    1 H       0.123681      0.876319
    68    1 H       0.266682      0.733318
    69    1 H       0.117588      0.882412
    70    1 H       0.112203      0.887797
    71    1 H       0.111890      0.888110
    72    1 H       0.114896      0.885104
    73    1 H       0.109385      0.890615
    74    1 H       0.101528      0.898472
    75    1 H       0.100570      0.899430
    76    1 H       0.132353      0.867647
    77    1 H       0.090163      0.909837
    78    1 H       0.115240      0.884760
    79    1 H       0.249156      0.750844
    80    1 H       0.092606      0.907394
    81    1 H       0.143791      0.856209
    82    1 H       0.262102      0.737898
    83    1 H       0.124384      0.875616
    84    1 H       0.087046      0.912954
    85    1 H       0.089560      0.910440
    86    1 H       0.062761      0.937239
    87    1 H       0.114883      0.885117
    88    1 H       0.201947      0.798053
    89    1 H       0.238351      0.761649
    90    1 H       0.248314      0.751686
    91    1 H       0.111328      0.888672
    92    1 H       0.099188      0.900812
    93    1 H       0.255319      0.744681
    94    1 H       0.126899      0.873101
    95    1 H       0.092101      0.907899
    96    1 H       0.116250      0.883750
    97    1 H       0.108786      0.891214
    98    1 H       0.222357      0.777643
    99    1 H       0.242938      0.757062
   100    1 H       0.254516      0.745484
   101    1 H       0.102259      0.897741
   102    1 H       0.355390      0.644610
   103    1 H       0.115619      0.884381
   104    1 H       0.095749      0.904251
   105    1 H       0.092989      0.907011
   106    1 H       0.093562      0.906438
   107    1 H       0.100736      0.899264
   108    1 H       0.091471      0.908529
   109    1 H       0.103331      0.896669
   110    1 H       0.097876      0.902124
   111    1 H       0.091538      0.908462
   112    1 H       0.098799      0.901201
   113    1 H       0.089540      0.910460
   114    1 H       0.216922      0.783078
   115    1 H       0.220382      0.779618
------------------------------------------------------


Wiberg/Mayer (AO) data.
largest (>0.10) Wiberg bond orders for each atom

 ---------------------------------------------------------------------------
     #   Z sym  total        # sym  WBO       # sym  WBO       # sym  WBO
 ---------------------------------------------------------------------------
     1   7 N    3.286 --     7 C    1.170     2 C    0.963    57 O    0.893
                             9 C    0.163
     2   6 C    3.932 --    49 C    0.979     1 N    0.963     3 C    0.927
                            58 O    0.926
     3   6 C    3.870 --     4 C    1.651     5 N    1.206     2 C    0.927
     4   8 C    1.945 --     3 C    1.651     5 N    0.146
     5   7 N    3.294 --     3 C    1.206     6 C    0.954    59 O    0.883
                             4 C    0.146
     6   6 C    3.916 --    52 C    0.985     5 N    0.954    60 O    0.942
                            43 C    0.898
     7   6 C    3.869 --     9 C    1.684     1 N    1.170     8 C    0.955
     8   6 C    3.932 --    11 C    0.969     7 C    0.955    10 N    0.950
                            61 O    0.932
     9   8 C    1.990 --     7 C    1.684     1 N    0.163
    10   7 N    3.256 --    12 C    1.180     8 C    0.950    62 O    0.883
                            15 C    0.146
    11   6 C    3.955 --    13 C    1.017     8 C    0.969    63 O    0.957
                            64 O    0.927
    12   6 C    3.850 --    15 C    1.690    10 N    1.180    14 C    0.907
    13   6 C    3.978 --    17 C    1.401    16 C    1.396    11 C    1.017
                            24 C    0.121
    14   6 C    3.931 --    19 C    0.980    18 N    0.970    65 O    0.917
                            12 C    0.907
    15   8 C    1.976 --    12 C    1.690    10 N    0.146
    16   6 C    3.962 --    20 C    1.444    13 C    1.396    66 O    0.954
                            21 C    0.114
    17   6 C    3.965 --    21 C    1.445    13 C    1.401    67 O    0.940
                            20 C    0.119
    18   7 N    3.289 --    22 C    1.193    14 C    0.970    68 O    0.877
                            26 C    0.153
    19   6 C    3.962 --    23 C    1.026    14 C    0.980    70 O    0.951
                            69 O    0.950
    20   6 C    3.969 --    16 C    1.444    24 C    1.426    71 O    0.954
                            17 C    0.119
    21   6 C    3.972 --    17 C    1.445    24 C    1.440    72 O    0.948
                            16 C    0.114
    22   6 C    3.863 --    26 C    1.694    18 N    1.193    25 C    0.910
    23   6 C    3.963 --    19 C    1.026    27 C    0.970    74 O    0.955
                            73 O    0.954
    24   6 C    3.970 --    21 C    1.440    20 C    1.426    75 O    0.952
                            13 C    0.121
    25   6 C    3.934 --    29 C    0.991    28 N    0.962    76 O    0.942
                            22 C    0.910
    26   8 C    1.964 --    22 C    1.694    18 N    0.153
    27   6 C    3.935 --    30 N    1.009    23 C    0.970    78 O    0.953
                            77 O    0.950
    28   7 N    3.232 --    31 C    1.138    25 C    0.962    79 O    0.889
                            35 C    0.140
    29   6 C    3.957 --    32 C    1.006    25 C    0.991    81 O    0.948
                            80 O    0.947
    30   7 N    3.172 --    33 C    1.080    27 C    1.009    82 O    0.894
    31   6 C    3.851 --    35 C    1.746    28 N    1.138    34 C    0.871
    32   6 C    3.955 --    29 C    1.006    36 C    0.989    84 O    0.965
                            83 O    0.952
    33   6 C    3.933 --    37 N    1.688    38 N    1.129    30 N    1.080
    34   6 C    3.943 --    39 N    0.998    40 C    0.997    85 O    0.923
                            31 C    0.871
    35   8 C    2.012 --    31 C    1.746    28 N    0.140
    36   6 C    3.934 --    41 N    0.996    32 C    0.989    86 O    0.955
                            87 O    0.942
    37   7 N    2.874 --    33 C    1.688    88 O    0.918    38 N    0.110
    38   7 N    3.130 --    33 C    1.129    90 O    0.918    89 O    0.913
                            37 N    0.110
    39   7 N    3.423 --    43 C    1.208    34 C    0.998    42 C    0.952
                            46 C    0.146
    40   6 C    3.966 --    44 C    1.009    34 C    0.997    92 O    0.958
                            91 O    0.951
    41   7 N    3.133 --    45 C    1.050    36 C    0.996    93 O    0.900
    42   6 C    3.908 --    44 C    0.990    39 N    0.952    94 O    0.951
                            95 O    0.950
    43   6 C    3.846 --    46 C    1.633    39 N    1.208     6 C    0.898
    44   6 C    3.960 --    40 C    1.009    42 C    0.990    96 O    0.960
                            97 O    0.959
    45   6 C    3.944 --    47 N    1.763    48 N    1.095    41 N    1.050
    46   8 C    1.934 --    43 C    1.633    39 N    0.146
    47   7 N    2.916 --    45 C    1.763    98 O    0.896    48 N    0.106
    48   7 N    3.085 --    45 C    1.095    99 O    0.914   100 O    0.911
                            47 N    0.106
    49   6 C    3.905 --     2 C    0.979    51 C    0.979    50 C    0.957
                           101 O    0.940
    50   8 C    1.889 --    49 C    0.957   102 O    0.845
    51   6 C    3.951 --    49 C    0.979   105 O    0.977   103 O    0.972
                           104 O    0.968
    52   6 C    3.963 --    53 C    1.012     6 C    0.985   107 O    0.957
                           106 O    0.957
    53   6 C    3.964 --    52 C    1.012    54 C    1.007   108 O    0.951
                           109 O    0.951
    54   6 C    3.967 --    53 C    1.007    55 C    0.996   111 O    0.959
                           110 O    0.956
    55   6 C    3.945 --    56 N    1.008    54 C    0.996   113 O    0.962
                           112 O    0.958
    56   7 N    2.947 --    55 C    1.008   114 O    0.943   115 O    0.940
    57   1 O    0.927 --     1 N    0.893
    58   1 O    0.981 --     2 C    0.926
    59   1 O    0.929 --     5 N    0.883
    60   1 O    0.984 --     6 C    0.942
    61   1 O    0.983 --     8 C    0.932
    62   1 O    0.927 --    10 N    0.883
    63   1 O    0.991 --    11 C    0.957
    64   1 O    0.982 --    11 C    0.927
    65   1 O    0.987 --    14 C    0.917
    66   1 O    0.991 --    16 C    0.954
    67   1 O    0.985 --    17 C    0.940
    68   1 O    0.929 --    18 N    0.877
    69   1 O    0.986 --    19 C    0.950
    70   1 O    0.987 --    19 C    0.951
    71   1 O    0.987 --    20 C    0.954
    72   1 O    0.987 --    21 C    0.948
    73   1 O    0.988 --    23 C    0.954
    74   1 O    0.990 --    23 C    0.955
    75   1 O    0.990 --    24 C    0.952
    76   1 O    0.982 --    25 C    0.942
    77   1 O    0.992 --    27 C    0.950
    78   1 O    0.987 --    27 C    0.953
    79   1 O    0.938 --    28 N    0.889
    80   1 O    0.991 --    29 C    0.947
    81   1 O    0.979 --    29 C    0.948
    82   1 O    0.931 --    30 N    0.894
    83   1 O    0.985 --    32 C    0.952
    84   1 O    0.992 --    32 C    0.965
    85   1 O    0.992 --    34 C    0.923
    86   1 O    0.996 --    36 C    0.955
    87   1 O    0.987 --    36 C    0.942
    88   1 O    0.959 --    37 N    0.918
    89   1 O    0.943 --    38 N    0.913
    90   1 O    0.938 --    38 N    0.918
    91   1 O    0.988 --    40 C    0.951
    92   1 O    0.990 --    40 C    0.958
    93   1 O    0.935 --    41 N    0.900
    94   1 O    0.984 --    42 C    0.951
    95   1 O    0.992 --    42 C    0.950
    96   1 O    0.986 --    44 C    0.960
    97   1 O    0.988 --    44 C    0.959
    98   1 O    0.951 --    47 N    0.896
    99   1 O    0.941 --    48 N    0.914
   100   1 O    0.935 --    48 N    0.911
   101   1 O    0.990 --    49 C    0.940
   102   1 O    0.874 --    50 C    0.845
   103   1 O    0.987 --    51 C    0.972
   104   1 O    0.991 --    51 C    0.968
   105   1 O    0.991 --    51 C    0.977
   106   1 O    0.991 --    52 C    0.957
   107   1 O    0.990 --    52 C    0.957
   108   1 O    0.992 --    53 C    0.951
   109   1 O    0.989 --    53 C    0.951
   110   1 O    0.990 --    54 C    0.956
   111   1 O    0.992 --    54 C    0.959
   112   1 O    0.990 --    55 C    0.958
   113   1 O    0.992 --    55 C    0.962
   114   1 O    0.953 --    56 N    0.943
   115   1 O    0.951 --    56 N    0.940
 ---------------------------------------------------------------------------

Topologies differ in total number of bonds
Writing topology from bond orders to xtbtopo.mol

Atomic dipole moments (in atomic units):
---------------------------------------------------------
     #    Z                 x            y            z
---------------------------------------------------------
           total     3.604452    -1.786423     0.248186
---------------------------------------------------------
         |total|     4.030506    10.244523 Debye


           -------------------------------------------------
          | TOTAL ENERGY            -2645.645095170871 Eh   |
          | GRADIENT NORM               0.430133326247 Eh/α |
           -------------------------------------------------

------------------------------------------------------------------------
 * finished run on 2026/05/23 at 13:00:03.040     
------------------------------------------------------------------------
 total:
 * wall-time:     0 d,  0 h,  0 min, 33.188 sec
 *  cpu-time:     0 d,  0 h,  1 min, 19.691 sec
 * ratio c/w:     2.401 speedup
 SCF:
 * wall-time:     0 d,  0 h,  0 min, 32.766 sec
 *  cpu-time:     0 d,  0 h,  1 min, 19.121 sec
 * ratio c/w:     2.415 speedup

normal termination of xtb
