      -----------------------------------------------------------      
     |                   =====================                   |     
     |                           x T B                           |     
     |                   =====================                   |     
     |                         S. Grimme                         |     
     |          Mulliken Center for Theoretical Chemistry        |     
     |                    University of Bonn                     |     
      -----------------------------------------------------------      

   * xtb version 6.7.1 (edcfbbe) compiled by 'albert@albert-system' on 2024-07-22

   xtb is free software: you can redistribute it and/or modify it under
   the terms of the GNU Lesser General Public License as published by
   the Free Software Foundation, either version 3 of the License, or
   (at your option) any later version.
   
   xtb is distributed in the hope that it will be useful,
   but WITHOUT ANY WARRANTY; without even the implied warranty of
   MERCHANTABILITY or FITNESS FOR A PARTICULAR PURPOSE.  See the
   GNU Lesser General Public License for more details.
   
   Cite this work as:
   * C. Bannwarth, E. Caldeweyher, S. Ehlert, A. Hansen, P. Pracht,
     J. Seibert, S. Spicher, S. Grimme, WIREs Comput. Mol. Sci., 2020, 11,
     e01493. DOI: 10.1002/wcms.1493
   
   for GFN2-xTB:
   * C. Bannwarth, S. Ehlert and S. Grimme., J. Chem. Theory Comput., 2019,
     15, 1652-1671. DOI: 10.1021/acs.jctc.8b01176
   for GFN1-xTB:
   * S. Grimme, C. Bannwarth, P. Shushkov, J. Chem. Theory Comput., 2017,
     13, 1989-2009. DOI: 10.1021/acs.jctc.7b00118
   for GFN0-xTB:
   * P. Pracht, E. Caldeweyher, S. Ehlert, S. Grimme, ChemRxiv, 2019, preprint.
     DOI: 10.26434/chemrxiv.8326202.v1
   for GFN-FF:
   * S. Spicher and S. Grimme, Angew. Chem. Int. Ed., 2020, 59, 15665-15673.
     DOI: 10.1002/anie.202004239
   
   for ALPB and GBSA implicit solvation:
   * S. Ehlert, M. Stahn, S. Spicher, S. Grimme, J. Chem. Theory Comput.,
     2021, 17, 4250-4261. DOI: 10.1021/acs.jctc.1c00471
   
   for ddCOSMO and CPCM-X implicit solvation:
   * M. Stahn, S. Ehlert, S. Grimme, J. Phys. Chem. A,
     2023, XX, XXXX-XXXX. DOI: 10.1021/acs.jpca.3c04382
   
   for DFT-D4:
   * E. Caldeweyher, C. Bannwarth and S. Grimme, J. Chem. Phys., 2017,
     147, 034112. DOI: 10.1063/1.4993215
   * E. Caldeweyher, S. Ehlert, A. Hansen, H. Neugebauer, S. Spicher,
     C. Bannwarth and S. Grimme, J. Chem. Phys., 2019, 150, 154122.
     DOI: 10.1063/1.5090222
   * E. Caldeweyher, J.-M. Mewes, S. Ehlert and S. Grimme, Phys. Chem. Chem. Phys.
     2020, 22, 8499-8512. DOI: 10.1039/D0CP00502A
   
   for sTDA-xTB:
   * S. Grimme and C. Bannwarth, J. Chem. Phys., 2016, 145, 054103.
     DOI: 10.1063/1.4959605
   
   in the mass-spec context:
   * V. Asgeirsson, C. Bauer and S. Grimme, Chem. Sci., 2017, 8, 4879.
     DOI: 10.1039/c7sc00601b
   * J. Koopman and S. Grimme, ACS Omega 2019, 4, 12, 15120-15133.
     DOI: 10.1021/acsomega.9b02011
   
   for metadynamics refer to:
   * S. Grimme, J. Chem. Theory Comput., 2019, 155, 2847-2862
     DOI: 10.1021/acs.jctc.9b00143
   
   for SPH calculations refer to:
   * S. Spicher and S. Grimme, J. Chem. Theory Comput., 2021, 17, 1701-1714
     DOI: 10.1021/acs.jctc.0c01306
   
   for ONIOM refer to:
   * C. Plett, A. Katbashev, S. Ehlert, S. Grimme, M. Bursch,
     Phys. Chem. Chem. Phys., 2023, 25, 17860-17868. DOI: 10.1039/D3CP02178E
   
   for DIPRO refer to:
   * J. Kohn, N. Gildemeister, S. Grimme, D. Fazzi, A. Hansen,
     J. Chem. Phys., 2023, just accepted.
   
   for PTB refer to:
   * S. Grimme, M. Mueller, A. Hansen, J. Chem. Phys., 2023, 158, 124111.
     DOI: 10.1063/5.0137838
   
   with help from (in alphabetical order)
   P. Atkinson, C. Bannwarth, F. Bohle, G. Brandenburg, E. Caldeweyher
   M. Checinski, S. Dohm, S. Ehlert, S. Ehrlich, I. Gerasimov, C. Hölzer
   A. Katbashev, J. Kohn, J. Koopman, C. Lavigne, S. Lehtola, F. März, M. Müller,
   F. Musil, H. Neugebauer, J. Pisarek, C. Plett, P. Pracht, F. Pultar,
   J. Seibert, P. Shushkov, S. Spicher, M. Stahn, M. Steiner, T. Strunk,
   J. Stückrath, T. Rose, and J. Unsleber
   
 * started run on 2026/05/23 at 08:18:25.589     
   ID    Z sym.   atoms
    1    7 N      1, 5, 10, 17, 23, 28, 35
    2    6 C      2, 3, 6-8, 11-14, 16, 20, 21, 24-26, 29, 31-34, 36-40
    3    8 O      4, 9, 15, 18, 19, 22, 27, 30
    4    1 H      41-70

           -------------------------------------------------
          |                Calculation Setup                |
           -------------------------------------------------

          program call               : /home/xchen/software/xtb-6.7.1/xtb-dist/bin/xtb /home/xchen/Test/benchmark/md_sampled/01_6_0109_n1/snap_0180.xyz --charge -1 --gfn 2 --norestart
          coordinate file            : /home/xchen/Test/benchmark/md_sampled/01_6_0109_n1/snap_0180.xyz
          omp threads                :                    48


           -------------------------------------------------
          |                 G F N 2 - x T B                 |
           -------------------------------------------------

        Reference                      10.1021/acs.jctc.8b01176
      * Hamiltonian:
        H0-scaling (s, p, d)           1.850000    2.230000    2.230000
        zeta-weighting                 0.500000
      * Dispersion:
        s8                             2.700000
        a1                             0.520000
        a2                             5.000000
        s9                             5.000000
      * Repulsion:
        kExp                           1.500000    1.000000
        rExp                           1.000000
      * Coulomb:
        alpha                          2.000000
        third order                    shell-resolved
        anisotropic                    true
        a3                             3.000000
        a5                             4.000000
        cn-shift                       1.200000
        cn-exp                         4.000000
        max-rad                        5.000000


          ...................................................
          :                      SETUP                      :
          :.................................................:
          :  # basis functions                 190          :
          :  # atomic orbitals                 190          :
          :  # shells                          110          :
          :  # electrons                       214          :
          :  max. iterations                   250          :
          :  Hamiltonian                  GFN2-xTB          :
          :  restarted?                      false          :
          :  GBSA solvation                  false          :
          :  PC potential                    false          :
          :  electronic temp.          300.0000000     K    :
          :  accuracy                    1.0000000          :
          :  -> integral cutoff          0.2500000E+02      :
          :  -> integral neglect         0.1000000E-07      :
          :  -> SCF convergence          0.1000000E-05 Eh   :
          :  -> wf. convergence          0.1000000E-03 e    :
          :  Broyden damping             0.4000000          :
          :  net charge                         -1          :
          :  unpaired electrons                  0          :
          ...................................................

 iter      E             dE          RMSdq      gap      omega  full diag
   1   -123.0777167 -0.123078E+03  0.455E+00    2.93       0.0  T
   2   -123.4257510 -0.348034E+00  0.249E+00    1.56       1.0  T
   3   -123.4482040 -0.224530E-01  0.140E+00    1.02       1.0  T
   4   -122.4672106  0.980993E+00  0.284E+00    0.01       1.0  T
   5   -123.4540559 -0.986845E+00  0.374E-01    0.60       1.0  T
   6   -123.4620901 -0.803423E-02  0.133E-01    0.37       1.0  T
   7   -123.4622419 -0.151795E-03  0.814E-02    0.44       1.0  T
   8   -123.4623416 -0.997148E-04  0.503E-02    0.48       1.0  T
   9   -123.4623422 -0.577626E-06  0.431E-02    0.49       1.0  T
  10   -123.4623633 -0.210880E-04  0.395E-02    0.48       1.0  T
  11   -123.4623826 -0.193380E-04  0.359E-02    0.47       1.0  T
  12   -123.4623976 -0.149547E-04  0.331E-02    0.46       1.0  T
  13   -123.4624113 -0.136669E-04  0.303E-02    0.44       1.0  T
  14   -123.4624270 -0.157166E-04  0.269E-02    0.43       1.0  T
  15   -123.4624688 -0.418072E-04  0.149E-02    0.38       1.0  T
  16   -123.4624878 -0.190429E-04  0.331E-03    0.34       3.6  T
  17   -123.4624884 -0.566903E-06  0.213E-03    0.34       5.6  T
  18   -123.4624888 -0.406579E-06  0.312E-04    0.33      38.3  T
  19   -123.4624888  0.160080E-08  0.316E-04    0.33      37.8  T

   *** convergence criteria satisfied after 19 iterations ***

         #    Occupation            Energy/Eh            Energy/eV
      -------------------------------------------------------------
         1        2.0000           -0.6656482             -18.1132
       ...           ...                  ...                  ...
       101        2.0000           -0.3172950              -8.6340
       102        2.0000           -0.3142162              -8.5503
       103        2.0000           -0.3094925              -8.4217
       104        2.0000           -0.3026554              -8.2357
       105        2.0000           -0.2215139              -6.0277
       106        2.0000           -0.2196497              -5.9770
       107        1.9966           -0.1970321              -5.3615 (HOMO)
       108        0.0032           -0.1848688              -5.0305 (LUMO)
       109        0.0001           -0.1813566              -4.9350
       110        0.0001           -0.1811329              -4.9289
       111        0.0000           -0.1800759              -4.9001
       112                         -0.1573751              -4.2824
       ...                                ...                  ...
       190                          0.7971737              21.6922
      -------------------------------------------------------------
                  HL-Gap            0.0121633 Eh            0.3310 eV
             Fermi-level           -0.1909741 Eh           -5.1967 eV

 SCC (total)                   0 d,  0 h,  0 min, 19.710 sec
 SCC setup                      ...        0 min,  0.033 sec (  0.170%)
 Dispersion                     ...        0 min,  0.078 sec (  0.395%)
 classical contributions        ...        0 min,  0.008 sec (  0.041%)
 integral evaluation            ...        0 min,  0.332 sec (  1.682%)
 iterations                     ...        0 min, 18.467 sec ( 93.693%)
 molecular gradient             ...        0 min,  0.784 sec (  3.978%)
 printout                       ...        0 min,  0.008 sec (  0.041%)

         :::::::::::::::::::::::::::::::::::::::::::::::::::::
         ::                     SUMMARY                     ::
         :::::::::::::::::::::::::::::::::::::::::::::::::::::
         :: total energy            -122.029608751184 Eh    ::
         :: gradient norm              0.320724424296 Eh/a0 ::
         :: HOMO-LUMO gap              0.330981353276 eV    ::
         ::.................................................::
         :: SCC energy              -123.461670275887 Eh    ::
         :: -> isotropic ES            0.405594039869 Eh    ::
         :: -> anisotropic ES          0.014256723369 Eh    ::
         :: -> anisotropic XC          0.030777515012 Eh    ::
         :: -> dispersion             -0.079872579513 Eh    ::
         :: repulsion energy           1.432061524703 Eh    ::
         :: add. restraining           0.000000000000 Eh    ::
         :: total charge              -1.000000000000 e     ::
         :::::::::::::::::::::::::::::::::::::::::::::::::::::

           -------------------------------------------------
          |                Property Printout                |
           -------------------------------------------------

    * Orbital Energies and Occupations

         #    Occupation            Energy/Eh            Energy/eV
      -------------------------------------------------------------
         1        2.0000           -0.6656482             -18.1132
       ...           ...                  ...                  ...
        95        2.0000           -0.3434615              -9.3461
        96        2.0000           -0.3325093              -9.0480
        97        2.0000           -0.3293339              -8.9616
        98        2.0000           -0.3265717              -8.8865
        99        2.0000           -0.3244879              -8.8298
       100        2.0000           -0.3204320              -8.7194
       101        2.0000           -0.3172950              -8.6340
       102        2.0000           -0.3142162              -8.5503
       103        2.0000           -0.3094925              -8.4217
       104        2.0000           -0.3026554              -8.2357
       105        2.0000           -0.2215139              -6.0277
       106        2.0000           -0.2196497              -5.9770
       107        1.9966           -0.1970321              -5.3615 (HOMO)
       108        0.0032           -0.1848688              -5.0305 (LUMO)
       109        0.0001           -0.1813566              -4.9350
       110        0.0001           -0.1811329              -4.9289
       111        0.0000           -0.1800759              -4.9001
       112                         -0.1573751              -4.2824
       113                         -0.1421822              -3.8690
       114                         -0.1412364              -3.8432
       115                         -0.1330423              -3.6203
       116                         -0.1049392              -2.8555
       117                         -0.0466645              -1.2698
       118                         -0.0287369              -0.7820
       ...                                ...                  ...
       190                          0.7971737              21.6922
      -------------------------------------------------------------
                  HL-Gap            0.0121633 Eh            0.3310 eV
             Fermi-level           -0.1909741 Eh           -5.1967 eV

     #   Z          covCN         q      C6AA      α(0)
     1   7 N        2.667    -0.220    25.800     7.544
     2   6 C        3.721    -0.018    21.001     6.545
     3   6 C        2.754     0.285    22.178     7.712
     4   8 O        0.863    -0.448    22.668     6.383
     5   7 N        2.687    -0.184    24.987     7.424
     6   6 C        3.793     0.030    20.082     6.382
     7   6 C        2.758     0.256    22.699     7.802
     8   6 C        3.791     0.030    20.082     6.382
     9   8 O        0.856    -0.483    23.414     6.488
    10   7 N        2.704    -0.165    24.566     7.361
    11   6 C        3.804    -0.064    21.718     6.635
    12   6 C        2.757     0.270    22.434     7.756
    13   6 C        3.798    -0.085    22.128     6.698
    14   6 C        3.744    -0.019    20.991     6.536
    15   8 O        0.867    -0.433    22.349     6.339
    16   6 C        2.681     0.355    20.966     7.493
    17   7 N        2.688    -0.201    25.372     7.481
    18   8 O        0.856    -0.538    24.643     6.656
    19   8 O        0.855    -0.617    26.544     6.908
    20   6 C        2.743     0.253    22.746     7.809
    21   6 C        3.748     0.012    20.445     6.449
    22   8 O        0.859    -0.398    21.638     6.237
    23   7 N        2.676    -0.225    25.926     7.562
    24   6 C        3.751    -0.113    22.716     6.797
    25   6 C        2.749     0.280    22.258     7.725
    26   6 C        3.761    -0.015    20.883     6.514
    27   8 O        0.858    -0.428    22.245     6.324
    28   7 N        2.684    -0.183    24.974     7.422
    29   6 C        2.757     0.276    22.337     7.739
    30   8 O        0.860    -0.430    22.291     6.330
    31   6 C        3.798    -0.060    21.659     6.626
    32   6 C        3.071    -0.007    28.121     8.695
    33   6 C        2.992     0.009    27.814     8.651
    34   6 C        3.065    -0.026    28.573     8.765
    35   7 N        2.750    -0.144    24.121     7.294
    36   6 C        3.095     0.054    26.687     8.467
    37   6 C        2.954    -0.031    28.776     8.798
    38   6 C        2.917    -0.069    29.719     8.940
    39   6 C        2.901    -0.037    28.912     8.816
    40   6 C        2.949    -0.042    29.036     8.838
    41   1 H        0.855     0.199     1.114     1.654
    42   1 H        0.917     0.080     1.983     2.203
    43   1 H        0.917     0.075     2.032     2.229
    44   1 H        0.860     0.183     1.199     1.715
    45   1 H        0.918     0.060     2.199     2.319
    46   1 H        0.921     0.077     2.006     2.215
    47   1 H        0.860     0.192     1.147     1.678
    48   1 H        0.929     0.037     2.493     2.469
    49   1 H        0.927     0.086     1.919     2.166
    50   1 H        0.925     0.005     2.974     2.697
    51   1 H        0.928     0.012     2.859     2.644
    52   1 H        0.928     0.074     2.040     2.233
    53   1 H        0.921     0.082     1.960     2.190
    54   1 H        0.862     0.186     1.182     1.703
    55   1 H        0.912     0.070     2.085     2.259
    56   1 H        0.861     0.174     1.250     1.751
    57   1 H        0.922     0.042     2.428     2.437
    58   1 H        0.925     0.068     2.110     2.271
    59   1 H        0.926     0.084     1.939     2.177
    60   1 H        0.926     0.058     2.219     2.329
    61   1 H        0.925     0.094     1.841     2.122
    62   1 H        0.858     0.208     1.068     1.619
    63   1 H        0.920     0.054     2.266     2.354
    64   1 H        0.924     0.082     1.964     2.191
    65   1 H        0.924     0.068     2.105     2.269
    66   1 H        0.861     0.156     1.363     1.829
    67   1 H        0.921     0.015     2.818     2.625
    68   1 H        0.927     0.018     2.763     2.599
    69   1 H        0.926     0.028     2.611     2.527
    70   1 H        0.922     0.010     2.894     2.661

 Mol. C6AA /au·bohr⁶  :      56147.101829
 Mol. C8AA /au·bohr⁸  :    1291494.691086
 Mol. α(0) /au        :        359.459066


Wiberg/Mayer (AO) data.
largest (>0.10) Wiberg bond orders for each atom

 ---------------------------------------------------------------------------
     #   Z sym  total        # sym  WBO       # sym  WBO       # sym  WBO
 ---------------------------------------------------------------------------
     1   7 N    3.332 --     7 C    1.226     2 C    0.966    41 H    0.895
                             9 O    0.153
     2   6 C    3.960 --     3 C    0.978     1 N    0.966    42 H    0.952
                            43 H    0.944
     3   6 C    3.956 --     4 O    1.660     5 N    1.257     2 C    0.978
     4   8 O    1.979 --     3 C    1.660     5 N    0.185
     5   7 N    3.434 --     3 C    1.257     6 C    0.971    44 H    0.937
                             4 O    0.185
     6   6 C    3.960 --     5 N    0.971    31 C    0.964    29 C    0.957
                            45 H    0.934
     7   6 C    3.927 --     9 O    1.617     1 N    1.226     8 C    0.984
     8   6 C    3.962 --     7 C    0.984    10 N    0.976    46 H    0.941
                            11 C    0.940
     9   8 O    1.938 --     7 C    1.617     1 N    0.153
    10   7 N    3.460 --    12 C    1.282     8 C    0.976    47 H    0.921
                            15 O    0.203
    11   6 C    3.974 --    13 C    1.000    48 H    0.981    49 H    0.963
                             8 C    0.940
    12   6 C    3.957 --    15 O    1.677    10 N    1.282    14 C    0.945
    13   6 C    3.962 --    11 C    1.000    51 H    0.969    50 H    0.955
                            16 C    0.876
    14   6 C    3.961 --    17 N    0.998    52 H    0.961    12 C    0.945
                            53 H    0.945
    15   8 O    1.999 --    12 C    1.677    10 N    0.203
    16   6 C    3.946 --    18 O    1.588    19 O    1.461    13 C    0.876
    17   7 N    3.413 --    20 C    1.214    14 C    0.998    54 H    0.932
                            22 O    0.204
    18   8 O    1.921 --    16 C    1.588    19 O    0.239
    19   8 O    1.764 --    16 C    1.461    18 O    0.239
    20   6 C    3.943 --    22 O    1.736    17 N    1.214    21 C    0.920
    21   6 C    3.949 --    24 C    1.018    55 H    0.942    23 N    0.934
                            20 C    0.920
    22   8 O    2.064 --    20 C    1.736    17 N    0.204
    23   7 N    3.378 --    25 C    1.222    56 H    0.940    21 C    0.934
                            27 O    0.195
    24   6 C    3.986 --    21 C    1.018    57 H    0.981    58 H    0.978
                            59 H    0.975
    25   6 C    3.954 --    27 O    1.692    23 N    1.222    26 C    0.982
    26   6 C    3.972 --    28 N    0.998    25 C    0.982    60 H    0.953
                            61 H    0.928
    27   8 O    2.020 --    25 C    1.692    23 N    0.195
    28   7 N    3.419 --    29 C    1.240    26 C    0.998    62 H    0.905
                            30 O    0.193
    29   6 C    3.954 --    30 O    1.683    28 N    1.240     6 C    0.957
    30   8 O    2.016 --    29 C    1.683    28 N    0.193
    31   6 C    3.983 --    32 C    1.012    63 H    0.969     6 C    0.964
                            64 H    0.961
    32   6 C    3.980 --    33 C    1.688    34 C    1.131    31 C    1.012
    33   6 C    3.943 --    32 C    1.688    35 N    1.112    65 H    0.959
    34   6 C    3.980 --    37 C    1.345    36 C    1.274    32 C    1.131
    35   7 N    3.473 --    36 C    1.172    33 C    1.112    66 H    0.951
    36   6 C    3.967 --    38 C    1.364    34 C    1.274    35 N    1.172
    37   6 C    3.990 --    39 C    1.473    34 C    1.345    67 H    0.965
                            38 C    0.124
    38   6 C    3.985 --    40 C    1.430    36 C    1.364    68 H    0.974
                            37 C    0.124
    39   6 C    3.989 --    37 C    1.473    40 C    1.423    69 H    0.966
    40   6 C    3.984 --    38 C    1.430    39 C    1.423    70 H    0.969
    41   1 H    0.961 --     1 N    0.895
    42   1 H    0.993 --     2 C    0.952
    43   1 H    0.994 --     2 C    0.944
    44   1 H    0.966 --     5 N    0.937
    45   1 H    0.996 --     6 C    0.934
    46   1 H    0.994 --     8 C    0.941
    47   1 H    0.963 --    10 N    0.921
    48   1 H    0.999 --    11 C    0.981
    49   1 H    0.992 --    11 C    0.963
    50   1 H    1.000 --    13 C    0.955
    51   1 H    1.000 --    13 C    0.969
    52   1 H    0.994 --    14 C    0.961
    53   1 H    0.993 --    14 C    0.945
    54   1 H    0.965 --    17 N    0.932
    55   1 H    0.995 --    21 C    0.942
    56   1 H    0.970 --    23 N    0.940
    57   1 H    0.998 --    24 C    0.981
    58   1 H    0.995 --    24 C    0.978
    59   1 H    0.993 --    24 C    0.975
    60   1 H    0.996 --    26 C    0.953
    61   1 H    0.990 --    26 C    0.928
    62   1 H    0.957 --    28 N    0.905
    63   1 H    0.996 --    31 C    0.969
    64   1 H    0.993 --    31 C    0.961
    65   1 H    0.994 --    33 C    0.959
    66   1 H    0.975 --    35 N    0.951
    67   1 H    0.999 --    37 C    0.965
    68   1 H    0.999 --    38 C    0.974
    69   1 H    0.999 --    39 C    0.966
    70   1 H    1.000 --    40 C    0.969
 ---------------------------------------------------------------------------

Topologies differ in total number of bonds
Writing topology from bond orders to xtbtopo.mol

molecular dipole:
                 x           y           z       tot (Debye)
 q only:        2.772       9.534       8.179
   full:        2.722       9.880       8.427      33.724
molecular quadrupole (traceless):
                xx          xy          yy          xz          yz          zz
 q only:       47.824     -56.408     -31.424     -47.370    -130.040     -16.401
  q+dip:       34.988     -59.551     -25.532     -49.149    -135.227      -9.455
   full:       36.953     -59.321     -27.806     -50.545    -134.361      -9.147


           -------------------------------------------------
          | TOTAL ENERGY             -122.029608751184 Eh   |
          | GRADIENT NORM               0.320724424296 Eh/α |
          | HOMO-LUMO GAP               0.330981353276 eV   |
           -------------------------------------------------

------------------------------------------------------------------------
 * finished run on 2026/05/23 at 08:18:45.966     
------------------------------------------------------------------------
 total:
 * wall-time:     0 d,  0 h,  0 min, 20.376 sec
 *  cpu-time:     0 d,  0 h,  0 min, 24.278 sec
 * ratio c/w:     1.192 speedup
 SCF:
 * wall-time:     0 d,  0 h,  0 min, 19.711 sec
 *  cpu-time:     0 d,  0 h,  0 min, 23.457 sec
 * ratio c/w:     1.190 speedup

normal termination of xtb
