      -----------------------------------------------------------      
     |                   =====================                   |     
     |                           x T B                           |     
     |                   =====================                   |     
     |                         S. Grimme                         |     
     |          Mulliken Center for Theoretical Chemistry        |     
     |                    University of Bonn                     |     
      -----------------------------------------------------------      

   * xtb version 6.7.1 (26dd68d) compiled by 'froitzheim@fs7' on 2026-05-14

   xtb is free software: you can redistribute it and/or modify it under
   the terms of the GNU Lesser General Public License as published by
   the Free Software Foundation, either version 3 of the License, or
   (at your option) any later version.
   
   xtb is distributed in the hope that it will be useful,
   but WITHOUT ANY WARRANTY; without even the implied warranty of
   MERCHANTABILITY or FITNESS FOR A PARTICULAR PURPOSE.  See the
   GNU Lesser General Public License for more details.
   
   Cite this work as:
   * C. Bannwarth, E. Caldeweyher, S. Ehlert, A. Hansen, P. Pracht,
     J. Seibert, S. Spicher, S. Grimme, WIREs Comput. Mol. Sci., 2020, 11,
     e01493. DOI: 10.1002/wcms.1493
   
   for g-xTB:
   * T. Froitzheim, M. Müller, A. Hansen, S. Grimme, ChemRxiv, 2025, preprint.
     DOI: 10.26434/chemrxiv-2025-bjxv
   for GFN2-xTB:
   * C. Bannwarth, S. Ehlert and S. Grimme., J. Chem. Theory Comput., 2019,
     15, 1652-1671. DOI: 10.1021/acs.jctc.8b01176
   for GFN1-xTB:
   * S. Grimme, C. Bannwarth, P. Shushkov, J. Chem. Theory Comput., 2017,
     13, 1989-2009. DOI: 10.1021/acs.jctc.7b00118
   for GFN0-xTB:
   * P. Pracht, E. Caldeweyher, S. Ehlert, S. Grimme, ChemRxiv, 2019, preprint.
     DOI: 10.26434/chemrxiv.8326202.v1
   for GFN-FF:
   * S. Spicher and S. Grimme, Angew. Chem. Int. Ed., 2020, 59, 15665-15673.
     DOI: 10.1002/anie.202004239
   
   for ALPB and GBSA implicit solvation:
   * S. Ehlert, M. Stahn, S. Spicher, S. Grimme, J. Chem. Theory Comput.,
     2021, 17, 4250-4261. DOI: 10.1021/acs.jctc.1c00471
   
   for ddCOSMO and CPCM-X implicit solvation:
   * M. Stahn, S. Ehlert, S. Grimme, J. Phys. Chem. A,
     2023, XX, XXXX-XXXX. DOI: 10.1021/acs.jpca.3c04382
   
   for DFT-D4:
   * E. Caldeweyher, C. Bannwarth and S. Grimme, J. Chem. Phys., 2017,
     147, 034112. DOI: 10.1063/1.4993215
   * E. Caldeweyher, S. Ehlert, A. Hansen, H. Neugebauer, S. Spicher,
     C. Bannwarth and S. Grimme, J. Chem. Phys., 2019, 150, 154122.
     DOI: 10.1063/1.5090222
   * E. Caldeweyher, J.-M. Mewes, S. Ehlert and S. Grimme, Phys. Chem. Chem. Phys.
     2020, 22, 8499-8512. DOI: 10.1039/D0CP00502A
   
   for sTDA-xTB:
   * S. Grimme and C. Bannwarth, J. Chem. Phys., 2016, 145, 054103.
     DOI: 10.1063/1.4959605
   
   in the mass-spec context:
   * V. Asgeirsson, C. Bauer and S. Grimme, Chem. Sci., 2017, 8, 4879.
     DOI: 10.1039/c7sc00601b
   * J. Koopman and S. Grimme, ACS Omega 2019, 4, 12, 15120-15133.
     DOI: 10.1021/acsomega.9b02011
   
   for metadynamics refer to:
   * S. Grimme, J. Chem. Theory Comput., 2019, 155, 2847-2862
     DOI: 10.1021/acs.jctc.9b00143
   
   for SPH calculations refer to:
   * S. Spicher and S. Grimme, J. Chem. Theory Comput., 2021, 17, 1701-1714
     DOI: 10.1021/acs.jctc.0c01306
   
   for ONIOM refer to:
   * C. Plett, A. Katbashev, S. Ehlert, S. Grimme, M. Bursch,
     Phys. Chem. Chem. Phys., 2023, 25, 17860-17868. DOI: 10.1039/D3CP02178E
   
   for DIPRO refer to:
   * J. Kohn, N. Gildemeister, S. Grimme, D. Fazzi, A. Hansen,
     J. Chem. Phys. 159, 144106 (2023). DOI: 10.1063/5.0167484
   
   for PTB refer to:
   * S. Grimme, M. Mueller, A. Hansen, J. Chem. Phys., 2023, 158, 124111.
     DOI: 10.1063/5.0137838
   
   with help from (in alphabetical order)
   P. Atkinson, C. Bannwarth, F. Bohle, G. Brandenburg, E. Caldeweyher,
   M. Checinski, S. Dohm, S. Ehlert, S. Ehrlich, M. Friede, T. Froitzheim,
   I. Gerasimov, C. Hölzer, A. Katbashev, J. Kohn, J. Koopman, C. Lavigne,
   S. Lehtola, F. März, M. Müller, F. Musil, H. Neugebauer, J. Pisarek,
   C. Plett, P. Pracht, F. Pultar, J. Seibert, P. Shushkov, S. Spicher,
   M. Stahn, M. Steiner, T. Strunk, J. Stückrath, T. Rose, and J. Unsleber
   
 * started run on 2026/05/23 at 12:40:22.148     
   ID    Z sym.   atoms
    1    7 N      1, 5, 10, 18, 28, 30, 37-39, 41, 47, 48, 56
    2    6 C      2, 3, 6-8, 11-14, 16, 17, 19-25, 27, 29, 31-34, 36, 40,
                  42-45, 49, 51-55
    3    8 O      4, 9, 15, 26, 35, 46, 50
    4    1 H      57-115

           -------------------------------------------------
          |                Calculation Setup                |
           -------------------------------------------------

          program call               : /home/xchen/software/xtb-6.7.1-gxtb/bin/xtb /home/xchen/Test/benchmark/md_sampled/03_6_0978_0/snap_0079.xyz --charge 0 --gxtb --norestart
          coordinate file            : /home/xchen/Test/benchmark/md_sampled/03_6_0978_0/snap_0079.xyz
          omp threads                :                    48

core increment energy         -2.3949795228626E+03 Eh
dispersion energy              2.4397104676836E-02 Eh
molecular charge               0.0000000000000E+00 e
number of electrons            3.0999999999720E+02 e
number of unpaired electrons   0.0000000000000E+00 e
wavefunction                   restricted
integral cutoff                2.6907767250513E+01 bohr
energy convergence             1.0000000000000E-06 Eh
density convergence            2.0000000000000E-05 e

------------------------------------------------------------
  cycle        total energy    energy error   density error
------------------------------------------------------------
      1     -2644.450998076  -2.4949587E+02   0.0000000E+00
      2     -2644.862326679  -4.1132860E-01   1.8929230E-02
      3     -2645.122358326  -2.6003165E-01   1.4988861E-02
      4     -2645.674340008  -5.5198168E-01   1.1922743E-02
      5     -2645.684606565  -1.0266557E-02   8.9952114E-04
      6     -2645.685418020  -8.1145506E-04   1.8255722E-04
      7     -2645.685502117  -8.4096873E-05   5.6444404E-05
      8     -2645.685506757  -4.6393481E-06   1.4243278E-05
      9     -2645.685507542  -7.8545548E-07   3.0663571E-06
------------------------------------------------------------

electronic energy             -2.5073038178415E+02 Eh
total energy                  -2.6456855075421E+03 Eh

Post processing:
 | Mayer-Wiberg bond orders
 | Molecular Multipole Moments

 total:                                  38.718 sec
 - increment                              0.000 sec (  0%)
 - repulsion                              0.011 sec (  0%)
 - dispersion                             0.679 sec (  1%)
 - coulomb                                0.269 sec (  0%)
 - exchange                               0.007 sec (  0%)
 - hamiltonian                           21.479 sec ( 55%)
 - acp                                    0.307 sec (  0%)
 - spin polarization                      0.000 sec (  0%)
 - post processing                        0.130 sec (  0%)
 - scc                                   14.110 sec ( 36%)
 - coulomb gradient                       0.134 sec (  0%)
 - dispersion gradient                    0.051 sec (  0%)
 - exchange gradient                      0.178 sec (  0%)
 - repulsion gradient                     0.013 sec (  0%)
 - acp gradient                           0.566 sec (  1%)
 - hamiltonian gradient                   0.804 sec (  2%)
 - gradient                               1.746 sec (  4%)

         :::::::::::::::::::::::::::::::::::::::::::::::::::::
         ::                     SUMMARY                     ::
         :::::::::::::::::::::::::::::::::::::::::::::::::::::
         :: total energy           -2645.685507542072 Eh    ::
         :: gradient norm              0.434980113829 Eh/a0 ::
         :: HOMO-LUMO gap              8.824469907085 eV    ::
         ::.................................................::
         :: add. restraining           0.000000000000 Eh    ::
         :: total charge              -0.000000000000 e     ::
         :::::::::::::::::::::::::::::::::::::::::::::::::::::

           -------------------------------------------------
          |                Property Printout                |
           -------------------------------------------------

    * Orbital Energies and Occupations
------------------------------------------------------------------
      #    Occupation            Energy/Eh            Energy/eV
------------------------------------------------------------------
      1        2.0000           -1.3656486             -37.1612
    ...           ...                  ...                  ...
    143        2.0000           -0.3736436             -10.1674
    144        2.0000           -0.3712822             -10.1031
    145        2.0000           -0.3696810             -10.0595
    146        2.0000           -0.3691708             -10.0456
    147        2.0000           -0.3680228             -10.0144
    148        2.0000           -0.3624030              -9.8615
    149        2.0000           -0.3620982              -9.8532
    150        2.0000           -0.3615810              -9.8391
    151        2.0000           -0.3583029              -9.7499
    152        2.0000           -0.3526216              -9.5953
    153        2.0000           -0.3471601              -9.4467
    154        2.0000           -0.3444023              -9.3717
    155        2.0000           -0.3316191              -9.0238 (HOMO)
    156                         -0.0073258              -0.1993 (LUMO)
    157                         -0.0025596              -0.0697
    158                          0.0005382               0.0146
    159                          0.0090641               0.2466
    160                          0.0106873               0.2908
    161                          0.0265153               0.7215
    162                          0.0313418               0.8529
    163                          0.0389410               1.0596
    164                          0.0740480               2.0149
    165                          0.1115096               3.0343
    166                          0.1252888               3.4093
    ...                                ...                  ...
    283                          0.9127315              24.8367
------------------------------------------------------------------
               HL-Gap            0.3242933 Eh            8.8245 eV
------------------------------------------------------------------

Atomic charges and shell populations (in atomic units):
------------------------------------------------------
     #    Z                q          p(s)       p(p)
------------------------------------------------------
     1    7 N      -0.334438      1.360875   3.973563
     2    6 C      -0.006344      1.105043   2.901301
     3    6 C       0.404438      1.094592   2.500970
     4    8 O      -0.566523      1.853303   4.713220
     5    7 N      -0.307658      1.361331   3.946327
     6    6 C       0.008797      1.098988   2.892215
     7    6 C       0.403564      1.097374   2.499062
     8    6 C      -0.012031      1.137172   2.874859
     9    8 O      -0.533055      1.856706   4.676349
    10    7 N      -0.336451      1.366270   3.970181
    11    6 C      -0.186956      1.154825   3.032130
    12    6 C       0.410342      1.089757   2.499901
    13    6 C      -0.050746      1.137984   2.912761
    14    6 C      -0.019733      1.137462   2.882271
    15    8 O      -0.560474      1.852883   4.707591
    16    6 C      -0.123736      1.144227   2.979509
    17    6 C      -0.105934      1.157719   2.948215
    18    7 N      -0.329943      1.366146   3.963797
    19    6 C      -0.162910      1.194768   2.968141
    20    6 C      -0.097434      1.145691   2.951743
    21    6 C      -0.067280      1.152268   2.915013
    22    6 C       0.390740      1.109537   2.499723
    23    6 C      -0.211620      1.162018   3.049603
    24    6 C      -0.099067      1.146233   2.952834
    25    6 C       0.030670      1.116946   2.852384
    26    8 O      -0.558777      1.852702   4.706075
    27    6 C      -0.065946      1.116461   2.949485
    28    7 N      -0.340221      1.398903   3.941319
    29    6 C      -0.205462      1.144907   3.060555
    30    7 N      -0.398648      1.381677   4.016971
    31    6 C       0.439708      1.084928   2.475364
    32    6 C      -0.163113      1.164339   2.998774
    33    6 C       0.289291      1.080937   2.629773
    34    6 C       0.003709      1.157231   2.839059
    35    8 O      -0.500031      1.848693   4.651338
    36    6 C      -0.064240      1.151626   2.912614
    37    7 N      -0.585546      1.579212   4.006333
    38    7 N      -0.412969      1.351616   4.061354
    39    7 N      -0.262137      1.391152   3.870986
    40    6 C      -0.184058      1.156907   3.027151
    41    7 N      -0.410108      1.358522   4.051586
    42    6 C      -0.068901      1.139984   2.928917
    43    6 C       0.435823      1.109556   2.454621
    44    6 C      -0.180881      1.165406   3.015475
    45    6 C       0.280944      1.098530   2.620526
    46    8 O      -0.572840      1.864240   4.708599
    47    7 N      -0.563383      1.601256   3.962127
    48    7 N      -0.451696      1.389974   4.061722
    49    6 C       0.103737      1.091990   2.804274
    50    8 O      -0.546628      1.797736   4.748891
    51    6 C      -0.281894      1.182812   3.099082
    52    6 C      -0.180168      1.148926   3.031242
    53    6 C      -0.175388      1.138155   3.037233
    54    6 C      -0.186155      1.137684   3.048471
    55    6 C      -0.083764      1.136001   2.947763
    56    7 N      -0.522248      1.451401   4.070847
    57    1 H       0.270102      0.729898
    58    1 H       0.159128      0.840872
    59    1 H       0.281571      0.718429
    60    1 H       0.139358      0.860642
    61    1 H       0.164108      0.835892
    62    1 H       0.279465      0.720535
    63    1 H       0.102746      0.897254
    64    1 H       0.139050      0.860950
    65    1 H       0.161686      0.838314
    66    1 H       0.092202      0.907798
    67    1 H       0.107791      0.892209
    68    1 H       0.258795      0.741205
    69    1 H       0.110096      0.889904
    70    1 H       0.095773      0.904227
    71    1 H       0.102292      0.897708
    72    1 H       0.120967      0.879033
    73    1 H       0.131978      0.868022
    74    1 H       0.122998      0.877002
    75    1 H       0.122524      0.877476
    76    1 H       0.111067      0.888933
    77    1 H       0.101729      0.898271
    78    1 H       0.099813      0.900187
    79    1 H       0.265112      0.734888
    80    1 H       0.091024      0.908976
    81    1 H       0.152506      0.847494
    82    1 H       0.242193      0.757807
    83    1 H       0.126895      0.873105
    84    1 H       0.091133      0.908867
    85    1 H       0.103804      0.896196
    86    1 H       0.091097      0.908903
    87    1 H       0.095024      0.904976
    88    1 H       0.208400      0.791600
    89    1 H       0.253172      0.746828
    90    1 H       0.275018      0.724982
    91    1 H       0.118234      0.881766
    92    1 H       0.116411      0.883589
    93    1 H       0.249479      0.750521
    94    1 H       0.118702      0.881298
    95    1 H       0.110513      0.889487
    96    1 H       0.098083      0.901917
    97    1 H       0.118404      0.881596
    98    1 H       0.218434      0.781566
    99    1 H       0.241866      0.758134
   100    1 H       0.261970      0.738030
   101    1 H       0.108907      0.891093
   102    1 H       0.370499      0.629501
   103    1 H       0.101025      0.898975
   104    1 H       0.094188      0.905812
   105    1 H       0.090172      0.909828
   106    1 H       0.087873      0.912127
   107    1 H       0.093801      0.906199
   108    1 H       0.097939      0.902061
   109    1 H       0.107242      0.892758
   110    1 H       0.106904      0.893096
   111    1 H       0.099817      0.900183
   112    1 H       0.076226      0.923774
   113    1 H       0.084720      0.915280
   114    1 H       0.212633      0.787367
   115    1 H       0.221112      0.778888
------------------------------------------------------


Wiberg/Mayer (AO) data.
largest (>0.10) Wiberg bond orders for each atom

 ---------------------------------------------------------------------------
     #   Z sym  total        # sym  WBO       # sym  WBO       # sym  WBO
 ---------------------------------------------------------------------------
     1   7 N    3.345 --     7 C    1.226     2 C    0.966    57 O    0.883
                             9 C    0.161
     2   6 C    3.928 --     1 N    0.966     3 C    0.958    49 C    0.953
                            58 O    0.909
     3   6 C    3.885 --     4 C    1.574     5 N    1.267     2 C    0.958
     4   8 C    1.915 --     3 C    1.574     5 N    0.169
     5   7 N    3.386 --     3 C    1.267     6 C    0.964    59 O    0.863
                             4 C    0.169
     6   6 C    3.928 --    52 C    0.984     5 N    0.964    43 C    0.942
                            60 O    0.916
     7   6 C    3.882 --     9 C    1.647     1 N    1.226     8 C    0.942
     8   6 C    3.925 --    11 C    0.987    10 N    0.942     7 C    0.942
                            61 O    0.915
     9   8 C    1.927 --     7 C    1.647     1 N    0.161
    10   7 N    3.338 --    12 C    1.255     8 C    0.942    62 O    0.879
                            15 C    0.169
    11   6 C    3.958 --     8 C    0.987    13 C    0.983    63 O    0.957
                            64 O    0.949
    12   6 C    3.883 --    15 C    1.616    10 N    1.255    14 C    0.949
    13   6 C    3.975 --    16 C    1.492    17 C    1.343    11 C    0.983
                            24 C    0.113
    14   6 C    3.906 --    19 C    0.957    18 N    0.956    12 C    0.949
                            65 O    0.900
    15   8 C    1.915 --    12 C    1.616    10 N    0.169
    16   6 C    3.972 --    13 C    1.492    20 C    1.367    66 O    0.945
                            21 C    0.116
    17   6 C    3.965 --    21 C    1.496    13 C    1.343    67 O    0.952
                            20 C    0.124
    18   7 N    3.359 --    22 C    1.265    14 C    0.956    68 O    0.879
                            26 C    0.162
    19   6 C    3.942 --    23 C    0.990    70 O    0.965    69 O    0.962
                            14 C    0.957
    20   6 C    3.968 --    24 C    1.498    16 C    1.367    71 O    0.951
                            17 C    0.124
    21   6 C    3.963 --    17 C    1.496    24 C    1.368    72 O    0.953
                            16 C    0.116
    22   6 C    3.871 --    26 C    1.612    18 N    1.265    25 C    0.921
    23   6 C    3.954 --    27 C    1.002    19 C    0.990    74 O    0.956
                            73 O    0.953
    24   6 C    3.968 --    20 C    1.498    21 C    1.368    75 O    0.951
                            13 C    0.113
    25   6 C    3.939 --    29 C    1.003    28 N    0.956    22 C    0.921
                            76 O    0.918
    26   8 C    1.927 --    22 C    1.612    18 N    0.162
    27   6 C    3.941 --    23 C    1.002    30 N    0.999    78 O    0.950
                            77 O    0.946
    28   7 N    3.258 --    31 C    1.175    25 C    0.956    79 O    0.879
                            35 C    0.146
    29   6 C    3.958 --    25 C    1.003    32 C    0.995    80 O    0.950
                            81 O    0.940
    30   7 N    3.147 --    33 C    1.044    27 C    0.999    82 O    0.907
    31   6 C    3.876 --    35 C    1.710    28 N    1.175    34 C    0.924
    32   6 C    3.955 --    36 C    1.005    29 C    0.995    84 O    0.961
                            83 O    0.954
    33   6 C    3.934 --    37 N    1.616    38 N    1.244    30 N    1.044
    34   6 C    3.927 --    40 C    0.996    85 O    0.939    31 C    0.924
                            39 N    0.917
    35   8 C    1.989 --    31 C    1.710    28 N    0.146
    36   6 C    3.924 --    32 C    1.005    41 N    0.967    86 O    0.957
                            87 O    0.943
    37   7 N    2.817 --    33 C    1.616    88 O    0.922    38 N    0.147
    38   7 N    3.250 --    33 C    1.244    89 O    0.906    90 O    0.896
                            37 N    0.147
    39   7 N    3.358 --    43 C    1.222    42 C    0.950    34 C    0.917
                            46 C    0.156
    40   6 C    3.956 --    34 C    0.996    44 C    0.991    92 O    0.958
                            91 O    0.956
    41   7 N    3.173 --    45 C    1.099    36 C    0.967    93 O    0.905
                            47 N    0.113
    42   6 C    3.917 --    44 C    1.001    95 O    0.956    94 O    0.952
                            39 N    0.950
    43   6 C    3.862 --    46 C    1.603    39 N    1.222     6 C    0.942
    44   6 C    3.959 --    42 C    1.001    40 C    0.991    96 O    0.963
                            97 O    0.961
    45   6 C    3.932 --    47 N    1.663    48 N    1.141    41 N    1.099
    46   8 C    1.896 --    43 C    1.603    39 N    0.156
    47   7 N    2.849 --    45 C    1.663    98 O    0.914    41 N    0.113
                            48 N    0.113
    48   7 N    3.138 --    45 C    1.141    99 O    0.918   100 O    0.909
                            47 N    0.113
    49   6 C    3.912 --    50 C    0.990    51 C    0.975     2 C    0.953
                           101 O    0.938
    50   8 C    1.912 --    49 C    0.990   102 O    0.812
    51   6 C    3.952 --   103 O    0.976    49 C    0.975   104 O    0.974
                           105 O    0.970
    52   6 C    3.962 --    53 C    0.998     6 C    0.984   106 O    0.959
                           107 O    0.952
    53   6 C    3.966 --    54 C    1.014    52 C    0.998   108 O    0.958
                           109 O    0.956
    54   6 C    3.970 --    53 C    1.014    55 C    1.003   110 O    0.951
                           111 O    0.950
    55   6 C    3.951 --    56 N    1.010    54 C    1.003   113 O    0.959
                           112 O    0.957
    56   7 N    2.945 --    55 C    1.010   114 O    0.941   115 O    0.936
    57   1 O    0.927 --     1 N    0.883
    58   1 O    0.975 --     2 C    0.909
    59   1 O    0.921 --     5 N    0.863
    60   1 O    0.981 --     6 C    0.916
    61   1 O    0.973 --     8 C    0.915
    62   1 O    0.922 --    10 N    0.879
    63   1 O    0.989 --    11 C    0.957
    64   1 O    0.981 --    11 C    0.949
    65   1 O    0.974 --    14 C    0.900
    66   1 O    0.991 --    16 C    0.945
    67   1 O    0.988 --    17 C    0.952
    68   1 O    0.933 --    18 N    0.879
    69   1 O    0.988 --    19 C    0.962
    70   1 O    0.991 --    19 C    0.965
    71   1 O    0.990 --    20 C    0.951
    72   1 O    0.985 --    21 C    0.953
    73   1 O    0.983 --    23 C    0.953
    74   1 O    0.985 --    23 C    0.956
    75   1 O    0.985 --    24 C    0.951
    76   1 O    0.988 --    25 C    0.918
    77   1 O    0.990 --    27 C    0.946
    78   1 O    0.990 --    27 C    0.950
    79   1 O    0.930 --    28 N    0.879
    80   1 O    0.992 --    29 C    0.950
    81   1 O    0.977 --    29 C    0.940
    82   1 O    0.941 --    30 N    0.907
    83   1 O    0.984 --    32 C    0.954
    84   1 O    0.992 --    32 C    0.961
    85   1 O    0.989 --    34 C    0.939
    86   1 O    0.992 --    36 C    0.957
    87   1 O    0.991 --    36 C    0.943
    88   1 O    0.957 --    37 N    0.922
    89   1 O    0.936 --    38 N    0.906
    90   1 O    0.924 --    38 N    0.896
    91   1 O    0.986 --    40 C    0.956
    92   1 O    0.986 --    40 C    0.958
    93   1 O    0.938 --    41 N    0.905
    94   1 O    0.986 --    42 C    0.952
    95   1 O    0.988 --    42 C    0.956
    96   1 O    0.990 --    44 C    0.963
    97   1 O    0.986 --    44 C    0.961
    98   1 O    0.952 --    47 N    0.914
    99   1 O    0.942 --    48 N    0.918
   100   1 O    0.931 --    48 N    0.909
   101   1 O    0.988 --    49 C    0.938
   102   1 O    0.863 --    50 C    0.812
   103   1 O    0.990 --    51 C    0.976
   104   1 O    0.991 --    51 C    0.974
   105   1 O    0.992 --    51 C    0.970
   106   1 O    0.992 --    52 C    0.959
   107   1 O    0.991 --    52 C    0.952
   108   1 O    0.990 --    53 C    0.958
   109   1 O    0.988 --    53 C    0.956
   110   1 O    0.989 --    54 C    0.951
   111   1 O    0.990 --    54 C    0.950
   112   1 O    0.994 --    55 C    0.957
   113   1 O    0.993 --    55 C    0.959
   114   1 O    0.955 --    56 N    0.941
   115   1 O    0.951 --    56 N    0.936
 ---------------------------------------------------------------------------

Topologies differ in total number of bonds
Writing topology from bond orders to xtbtopo.mol

Atomic dipole moments (in atomic units):
---------------------------------------------------------
     #    Z                 x            y            z
---------------------------------------------------------
           total     3.934030    -2.024593    -1.912105
---------------------------------------------------------
         |total|     4.819928    12.251036 Debye


           -------------------------------------------------
          | TOTAL ENERGY            -2645.685507542072 Eh   |
          | GRADIENT NORM               0.434980113829 Eh/α |
           -------------------------------------------------

------------------------------------------------------------------------
 * finished run on 2026/05/23 at 12:41:01.906     
------------------------------------------------------------------------
 total:
 * wall-time:     0 d,  0 h,  0 min, 39.757 sec
 *  cpu-time:     0 d,  0 h,  1 min,  4.135 sec
 * ratio c/w:     1.613 speedup
 SCF:
 * wall-time:     0 d,  0 h,  0 min, 39.196 sec
 *  cpu-time:     0 d,  0 h,  1 min,  3.635 sec
 * ratio c/w:     1.624 speedup

normal termination of xtb
