      -----------------------------------------------------------      
     |                   =====================                   |     
     |                           x T B                           |     
     |                   =====================                   |     
     |                         S. Grimme                         |     
     |          Mulliken Center for Theoretical Chemistry        |     
     |                    University of Bonn                     |     
      -----------------------------------------------------------      

   * xtb version 6.7.1 (26dd68d) compiled by 'froitzheim@fs7' on 2026-05-14

   xtb is free software: you can redistribute it and/or modify it under
   the terms of the GNU Lesser General Public License as published by
   the Free Software Foundation, either version 3 of the License, or
   (at your option) any later version.
   
   xtb is distributed in the hope that it will be useful,
   but WITHOUT ANY WARRANTY; without even the implied warranty of
   MERCHANTABILITY or FITNESS FOR A PARTICULAR PURPOSE.  See the
   GNU Lesser General Public License for more details.
   
   Cite this work as:
   * C. Bannwarth, E. Caldeweyher, S. Ehlert, A. Hansen, P. Pracht,
     J. Seibert, S. Spicher, S. Grimme, WIREs Comput. Mol. Sci., 2020, 11,
     e01493. DOI: 10.1002/wcms.1493
   
   for g-xTB:
   * T. Froitzheim, M. Müller, A. Hansen, S. Grimme, ChemRxiv, 2025, preprint.
     DOI: 10.26434/chemrxiv-2025-bjxv
   for GFN2-xTB:
   * C. Bannwarth, S. Ehlert and S. Grimme., J. Chem. Theory Comput., 2019,
     15, 1652-1671. DOI: 10.1021/acs.jctc.8b01176
   for GFN1-xTB:
   * S. Grimme, C. Bannwarth, P. Shushkov, J. Chem. Theory Comput., 2017,
     13, 1989-2009. DOI: 10.1021/acs.jctc.7b00118
   for GFN0-xTB:
   * P. Pracht, E. Caldeweyher, S. Ehlert, S. Grimme, ChemRxiv, 2019, preprint.
     DOI: 10.26434/chemrxiv.8326202.v1
   for GFN-FF:
   * S. Spicher and S. Grimme, Angew. Chem. Int. Ed., 2020, 59, 15665-15673.
     DOI: 10.1002/anie.202004239
   
   for ALPB and GBSA implicit solvation:
   * S. Ehlert, M. Stahn, S. Spicher, S. Grimme, J. Chem. Theory Comput.,
     2021, 17, 4250-4261. DOI: 10.1021/acs.jctc.1c00471
   
   for ddCOSMO and CPCM-X implicit solvation:
   * M. Stahn, S. Ehlert, S. Grimme, J. Phys. Chem. A,
     2023, XX, XXXX-XXXX. DOI: 10.1021/acs.jpca.3c04382
   
   for DFT-D4:
   * E. Caldeweyher, C. Bannwarth and S. Grimme, J. Chem. Phys., 2017,
     147, 034112. DOI: 10.1063/1.4993215
   * E. Caldeweyher, S. Ehlert, A. Hansen, H. Neugebauer, S. Spicher,
     C. Bannwarth and S. Grimme, J. Chem. Phys., 2019, 150, 154122.
     DOI: 10.1063/1.5090222
   * E. Caldeweyher, J.-M. Mewes, S. Ehlert and S. Grimme, Phys. Chem. Chem. Phys.
     2020, 22, 8499-8512. DOI: 10.1039/D0CP00502A
   
   for sTDA-xTB:
   * S. Grimme and C. Bannwarth, J. Chem. Phys., 2016, 145, 054103.
     DOI: 10.1063/1.4959605
   
   in the mass-spec context:
   * V. Asgeirsson, C. Bauer and S. Grimme, Chem. Sci., 2017, 8, 4879.
     DOI: 10.1039/c7sc00601b
   * J. Koopman and S. Grimme, ACS Omega 2019, 4, 12, 15120-15133.
     DOI: 10.1021/acsomega.9b02011
   
   for metadynamics refer to:
   * S. Grimme, J. Chem. Theory Comput., 2019, 155, 2847-2862
     DOI: 10.1021/acs.jctc.9b00143
   
   for SPH calculations refer to:
   * S. Spicher and S. Grimme, J. Chem. Theory Comput., 2021, 17, 1701-1714
     DOI: 10.1021/acs.jctc.0c01306
   
   for ONIOM refer to:
   * C. Plett, A. Katbashev, S. Ehlert, S. Grimme, M. Bursch,
     Phys. Chem. Chem. Phys., 2023, 25, 17860-17868. DOI: 10.1039/D3CP02178E
   
   for DIPRO refer to:
   * J. Kohn, N. Gildemeister, S. Grimme, D. Fazzi, A. Hansen,
     J. Chem. Phys. 159, 144106 (2023). DOI: 10.1063/5.0167484
   
   for PTB refer to:
   * S. Grimme, M. Mueller, A. Hansen, J. Chem. Phys., 2023, 158, 124111.
     DOI: 10.1063/5.0137838
   
   with help from (in alphabetical order)
   P. Atkinson, C. Bannwarth, F. Bohle, G. Brandenburg, E. Caldeweyher,
   M. Checinski, S. Dohm, S. Ehlert, S. Ehrlich, M. Friede, T. Froitzheim,
   I. Gerasimov, C. Hölzer, A. Katbashev, J. Kohn, J. Koopman, C. Lavigne,
   S. Lehtola, F. März, M. Müller, F. Musil, H. Neugebauer, J. Pisarek,
   C. Plett, P. Pracht, F. Pultar, J. Seibert, P. Shushkov, S. Spicher,
   M. Stahn, M. Steiner, T. Strunk, J. Stückrath, T. Rose, and J. Unsleber
   
 * started run on 2026/05/23 at 12:32:34.704     
   ID    Z sym.   atoms
    1    7 N      1, 5, 10, 17, 22, 26, 27, 33, 41
    2    6 C      2, 3, 6-8, 11-14, 16, 18-21, 23, 28-30, 34-39
    3    8 O      4, 9, 15, 24, 25, 31, 32, 40
    4    1 H      42-82

           -------------------------------------------------
          |                Calculation Setup                |
           -------------------------------------------------

          program call               : /home/xchen/software/xtb-6.7.1-gxtb/bin/xtb /home/xchen/Test/benchmark/md_sampled/09_5_0584_0/snap_0071.xyz --charge 0 --gxtb --norestart
          coordinate file            : /home/xchen/Test/benchmark/md_sampled/09_5_0584_0/snap_0071.xyz
          omp threads                :                    48

core increment energy         -1.8448408193529E+03 Eh
dispersion energy              1.6538422625574E-02 Eh
molecular charge               0.0000000000000E+00 e
number of electrons            2.2999999999795E+02 e
number of unpaired electrons   0.0000000000000E+00 e
wavefunction                   restricted
integral cutoff                2.6907767250513E+01 bohr
energy convergence             1.0000000000000E-06 Eh
density convergence            2.0000000000000E-05 e

------------------------------------------------------------
  cycle        total energy    energy error   density error
------------------------------------------------------------
      1     -2032.887466052  -1.8806319E+02   0.0000000E+00
      2     -2033.229743624  -3.4227757E-01   2.2907640E-02
      3     -2033.454026730  -2.2428311E-01   1.8222762E-02
      4     -2033.941515296  -4.8748857E-01   1.4522754E-02
      5     -2033.948643887  -7.1285916E-03   1.0499254E-03
      6     -2033.949193946  -5.5005848E-04   2.2367476E-04
      7     -2033.949243977  -5.0031129E-05   7.2839363E-05
      8     -2033.949247695  -3.7180799E-06   1.9512737E-05
      9     -2033.949248025  -3.2987592E-07   3.2884878E-06
------------------------------------------------------------

electronic energy             -1.8912496709455E+02 Eh
total energy                  -2.0339492480248E+03 Eh

Post processing:
 | Mayer-Wiberg bond orders
 | Molecular Multipole Moments

 total:                                  13.852 sec
 - increment                              0.000 sec (  0%)
 - repulsion                              0.011 sec (  0%)
 - dispersion                             0.277 sec (  1%)
 - coulomb                                0.169 sec (  1%)
 - exchange                               0.042 sec (  0%)
 - hamiltonian                            0.436 sec (  3%)
 - acp                                    0.298 sec (  2%)
 - spin polarization                      0.000 sec (  0%)
 - post processing                        0.012 sec (  0%)
 - scc                                   11.713 sec ( 84%)
 - coulomb gradient                       0.093 sec (  0%)
 - dispersion gradient                    0.035 sec (  0%)
 - exchange gradient                      0.136 sec (  0%)
 - repulsion gradient                     0.006 sec (  0%)
 - acp gradient                           0.295 sec (  2%)
 - hamiltonian gradient                   0.293 sec (  2%)
 - gradient                               0.859 sec (  6%)

         :::::::::::::::::::::::::::::::::::::::::::::::::::::
         ::                     SUMMARY                     ::
         :::::::::::::::::::::::::::::::::::::::::::::::::::::
         :: total energy           -2033.949248024822 Eh    ::
         :: gradient norm              0.297281354283 Eh/a0 ::
         :: HOMO-LUMO gap              9.311170996476 eV    ::
         ::.................................................::
         :: add. restraining           0.000000000000 Eh    ::
         :: total charge              -0.000000000000 e     ::
         :::::::::::::::::::::::::::::::::::::::::::::::::::::

           -------------------------------------------------
          |                Property Printout                |
           -------------------------------------------------

    * Orbital Energies and Occupations
------------------------------------------------------------------
      #    Occupation            Energy/Eh            Energy/eV
------------------------------------------------------------------
      1        2.0000           -1.3623417             -37.0712
    ...           ...                  ...                  ...
    103        2.0000           -0.3949045             -10.7459
    104        2.0000           -0.3927161             -10.6864
    105        2.0000           -0.3901935             -10.6177
    106        2.0000           -0.3855408             -10.4911
    107        2.0000           -0.3810862             -10.3699
    108        2.0000           -0.3772416             -10.2653
    109        2.0000           -0.3723944             -10.1334
    110        2.0000           -0.3662385              -9.9659
    111        2.0000           -0.3631737              -9.8825
    112        2.0000           -0.3625996              -9.8668
    113        2.0000           -0.3584723              -9.7545
    114        2.0000           -0.3572002              -9.7199
    115        2.0000           -0.3542930              -9.6408 (HOMO)
    116                         -0.0121138              -0.3296 (LUMO)
    117                          0.0006706               0.0182
    118                          0.0086222               0.2346
    119                          0.0103635               0.2820
    120                          0.0310982               0.8462
    121                          0.0388431               1.0570
    122                          0.0449801               1.2240
    123                          0.0455698               1.2400
    124                          0.1386967               3.7741
    125                          0.1482944               4.0353
    126                          0.1655512               4.5049
    ...                                ...                  ...
    205                          0.7407485              20.1568
------------------------------------------------------------------
               HL-Gap            0.3421792 Eh            9.3112 eV
------------------------------------------------------------------

Atomic charges and shell populations (in atomic units):
------------------------------------------------------
     #    Z                q          p(s)       p(p)
------------------------------------------------------
     1    7 N      -0.318748      1.346088   3.972660
     2    6 C       0.022231      1.129409   2.848360
     3    6 C       0.425137      1.113194   2.461669
     4    8 O      -0.552676      1.844266   4.708410
     5    7 N      -0.339793      1.356420   3.983373
     6    6 C      -0.004961      1.111061   2.893900
     7    6 C       0.431560      1.093719   2.474721
     8    6 C      -0.006195      1.115359   2.890836
     9    8 O      -0.527218      1.849239   4.677979
    10    7 N      -0.335993      1.357437   3.978556
    11    6 C      -0.185347      1.154080   3.031268
    12    6 C       0.409272      1.110516   2.480212
    13    6 C      -0.152331      1.164645   2.987686
    14    6 C       0.021721      1.118612   2.859667
    15    8 O      -0.531332      1.860350   4.670982
    16    6 C      -0.208825      1.158298   3.050526
    17    7 N      -0.293756      1.361821   3.931935
    18    6 C      -0.204409      1.152126   3.052283
    19    6 C      -0.102990      1.125833   2.977157
    20    6 C       0.408206      1.111258   2.480536
    21    6 C       0.385773      1.105084   2.509143
    22    7 N      -0.485114      1.450838   4.034276
    23    6 C       0.016793      1.122476   2.860731
    24    8 O      -0.579620      1.859382   4.720237
    25    8 O      -0.529428      1.856535   4.672893
    26    7 N      -0.418386      1.411061   4.007325
    27    7 N      -0.354735      1.372915   3.981820
    28    6 C      -0.187371      1.157629   3.029742
    29    6 C       0.393859      1.099358   2.506783
    30    6 C       0.421081      1.083432   2.495487
    31    8 O      -0.524111      1.857231   4.666879
    32    8 O      -0.504081      1.852825   4.651256
    33    7 N      -0.436870      1.378537   4.058333
    34    6 C      -0.118629      1.143343   2.975287
    35    6 C      -0.257631      1.183620   3.074011
    36    6 C      -0.241420      1.155437   3.085983
    37    6 C      -0.192923      1.132093   3.060830
    38    6 C      -0.195994      1.139316   3.056678
    39    6 C       0.405981      1.092305   2.501715
    40    8 O      -0.517743      1.852650   4.665093
    41    7 N      -0.427136      1.367050   4.060086
    42    1 H       0.291715      0.708285
    43    1 H       0.124097      0.875903
    44    1 H       0.274471      0.725529
    45    1 H       0.125771      0.874229
    46    1 H       0.131593      0.868407
    47    1 H       0.256054      0.743946
    48    1 H       0.101846      0.898154
    49    1 H       0.118435      0.881565
    50    1 H       0.105013      0.894987
    51    1 H       0.061964      0.938036
    52    1 H       0.132603      0.867397
    53    1 H       0.080460      0.919540
    54    1 H       0.094063      0.905937
    55    1 H       0.281613      0.718387
    56    1 H       0.154763      0.845237
    57    1 H       0.096863      0.903137
    58    1 H       0.093520      0.906480
    59    1 H       0.107637      0.892363
    60    1 H       0.214266      0.785734
    61    1 H       0.215780      0.784220
    62    1 H       0.144249      0.855751
    63    1 H       0.274468      0.725532
    64    1 H       0.237062      0.762938
    65    1 H       0.303780      0.696220
    66    1 H       0.106251      0.893749
    67    1 H       0.136802      0.863198
    68    1 H       0.235476      0.764524
    69    1 H       0.251547      0.748453
    70    1 H       0.127597      0.872403
    71    1 H       0.080876      0.919124
    72    1 H       0.080304      0.919696
    73    1 H       0.090066      0.909934
    74    1 H       0.100909      0.899091
    75    1 H       0.096782      0.903218
    76    1 H       0.098042      0.901958
    77    1 H       0.109548      0.890452
    78    1 H       0.114704      0.885296
    79    1 H       0.126291      0.873709
    80    1 H       0.123043      0.876957
    81    1 H       0.253123      0.746877
    82    1 H       0.240702      0.759298
------------------------------------------------------


Wiberg/Mayer (AO) data.
largest (>0.10) Wiberg bond orders for each atom

 ---------------------------------------------------------------------------
     #   Z sym  total        # sym  WBO       # sym  WBO       # sym  WBO
 ---------------------------------------------------------------------------
     1   7 N    3.342 --     7 C    1.225     2 C    0.979    42 O    0.873
                             9 C    0.165
     2   6 C    3.932 --     1 N    0.979    34 C    0.945    43 O    0.942
                             3 C    0.927
     3   6 C    3.844 --     4 C    1.607     5 N    1.225     2 C    0.927
     4   8 C    1.968 --     3 C    1.607     5 N    0.154
     5   7 N    3.339 --     3 C    1.225     6 C    0.971    44 O    0.895
                             4 C    0.154
     6   6 C    3.933 --    37 C    0.981     5 N    0.971    45 O    0.940
                            29 C    0.922
     7   6 C    3.874 --     9 C    1.675     1 N    1.225     8 C    0.897
     8   6 C    3.928 --    11 C    1.010    10 N    0.957    46 O    0.924
                             7 C    0.897
     9   8 C    1.967 --     7 C    1.675     1 N    0.165
    10   7 N    3.343 --    12 C    1.232     8 C    0.957    47 O    0.895
                            15 C    0.163
    11   6 C    3.956 --     8 C    1.010    13 C    0.980    48 O    0.956
                            49 O    0.949
    12   6 C    3.877 --    15 C    1.650    10 N    1.232    14 C    0.917
    13   6 C    3.965 --    16 C    1.021    11 C    0.980    51 O    0.959
                            50 O    0.957
    14   6 C    3.938 --    18 C    0.981    17 N    0.966    52 O    0.936
                            12 C    0.917
    15   8 C    1.935 --    12 C    1.650    10 N    0.163
    16   6 C    3.967 --    13 C    1.021    19 C    0.981    53 O    0.959
                            54 O    0.956
    17   7 N    3.364 --    20 C    1.270    14 C    0.966    55 O    0.884
                            24 C    0.156
    18   6 C    3.958 --    14 C    0.981    21 C    0.963    57 O    0.957
                            56 O    0.934
    19   6 C    3.954 --    22 N    1.038    16 C    0.981    58 O    0.959
                            59 O    0.950
    20   6 C    3.863 --    24 C    1.593    17 N    1.270    23 C    0.921
    21   6 C    3.882 --    25 C    1.662    26 N    1.219    18 C    0.963
    22   7 N    2.963 --    19 C    1.038    61 O    0.936    60 O    0.934
    23   6 C    3.933 --    27 N    0.982    28 C    0.952    62 O    0.936
                            20 C    0.921
    24   8 C    1.883 --    20 C    1.593    17 N    0.156
    25   8 C    1.927 --    21 C    1.662    26 N    0.157
    26   7 N    3.234 --    21 C    1.219    64 O    0.921    63 O    0.897
                            25 C    0.157
    27   7 N    3.317 --    29 C    1.237    23 C    0.982    65 O    0.811
                            31 C    0.169
    28   6 C    3.957 --    30 C    0.979    66 O    0.954    23 C    0.952
                            67 O    0.941
    29   6 C    3.890 --    31 C    1.655    27 N    1.237     6 C    0.922
    30   6 C    3.883 --    32 C    1.700    33 N    1.173    28 C    0.979
    31   8 C    1.941 --    29 C    1.655    27 N    0.169
    32   8 C    1.975 --    30 C    1.700    33 N    0.168
    33   7 N    3.219 --    30 C    1.173    68 O    0.922    69 O    0.913
                            32 C    0.168
    34   6 C    3.965 --    36 C    1.021    35 C    0.996     2 C    0.945
                            70 O    0.938
    35   6 C    3.957 --    34 C    0.996    73 O    0.975    72 O    0.974
                            71 O    0.973
    36   6 C    3.959 --    34 C    1.021    76 O    0.970    75 O    0.969
                            74 O    0.966
    37   6 C    3.965 --    38 C    1.026     6 C    0.981    77 O    0.951
                            78 O    0.936
    38   6 C    3.962 --    37 C    1.026    39 C    0.956    80 O    0.948
                            79 O    0.932
    39   6 C    3.879 --    40 C    1.684    41 N    1.206    38 C    0.956
    40   8 C    1.957 --    39 C    1.684    41 N    0.169
    41   7 N    3.241 --    39 C    1.206    82 O    0.915    81 O    0.911
                            40 C    0.169
    42   1 O    0.915 --     1 N    0.873
    43   1 O    0.985 --     2 C    0.942
    44   1 O    0.925 --     5 N    0.895
    45   1 O    0.984 --     6 C    0.940
    46   1 O    0.983 --     8 C    0.924
    47   1 O    0.934 --    10 N    0.895
    48   1 O    0.990 --    11 C    0.956
    49   1 O    0.986 --    11 C    0.949
    50   1 O    0.989 --    13 C    0.957
    51   1 O    0.996 --    13 C    0.959
    52   1 O    0.982 --    14 C    0.936
    53   1 O    0.994 --    16 C    0.959
    54   1 O    0.991 --    16 C    0.956
    55   1 O    0.921 --    17 N    0.884
    56   1 O    0.976 --    18 C    0.934
    57   1 O    0.991 --    18 C    0.957
    58   1 O    0.991 --    19 C    0.959
    59   1 O    0.988 --    19 C    0.950
    60   1 O    0.954 --    22 N    0.934
    61   1 O    0.953 --    22 N    0.936
    62   1 O    0.979 --    23 C    0.936
    63   1 O    0.925 --    26 N    0.897
    64   1 O    0.944 --    26 N    0.921
    65   1 O    0.908 --    27 N    0.811
    66   1 O    0.989 --    28 C    0.954
    67   1 O    0.981 --    28 C    0.941
    68   1 O    0.945 --    33 N    0.922
    69   1 O    0.937 --    33 N    0.913
    70   1 O    0.984 --    34 C    0.938
    71   1 O    0.993 --    35 C    0.973
    72   1 O    0.994 --    35 C    0.974
    73   1 O    0.992 --    35 C    0.975
    74   1 O    0.990 --    36 C    0.966
    75   1 O    0.991 --    36 C    0.969
    76   1 O    0.990 --    36 C    0.970
    77   1 O    0.988 --    37 C    0.951
    78   1 O    0.987 --    37 C    0.936
    79   1 O    0.984 --    38 C    0.932
    80   1 O    0.985 --    38 C    0.948
    81   1 O    0.936 --    41 N    0.911
    82   1 O    0.942 --    41 N    0.915
 ---------------------------------------------------------------------------

Topologies differ in total number of bonds
Writing topology from bond orders to xtbtopo.mol

Atomic dipole moments (in atomic units):
---------------------------------------------------------
     #    Z                 x            y            z
---------------------------------------------------------
           total    -3.829768     1.418417    -3.594511
---------------------------------------------------------
         |total|     5.440546    13.828488 Debye


           -------------------------------------------------
          | TOTAL ENERGY            -2033.949248024822 Eh   |
          | GRADIENT NORM               0.297281354283 Eh/α |
           -------------------------------------------------

------------------------------------------------------------------------
 * finished run on 2026/05/23 at 12:32:49.419     
------------------------------------------------------------------------
 total:
 * wall-time:     0 d,  0 h,  0 min, 14.714 sec
 *  cpu-time:     0 d,  0 h,  0 min, 20.834 sec
 * ratio c/w:     1.416 speedup
 SCF:
 * wall-time:     0 d,  0 h,  0 min, 14.263 sec
 *  cpu-time:     0 d,  0 h,  0 min, 20.433 sec
 * ratio c/w:     1.433 speedup

normal termination of xtb
