      -----------------------------------------------------------      
     |                   =====================                   |     
     |                           x T B                           |     
     |                   =====================                   |     
     |                         S. Grimme                         |     
     |          Mulliken Center for Theoretical Chemistry        |     
     |                    University of Bonn                     |     
      -----------------------------------------------------------      

   * xtb version 6.7.1 (edcfbbe) compiled by 'albert@albert-system' on 2024-07-22

   xtb is free software: you can redistribute it and/or modify it under
   the terms of the GNU Lesser General Public License as published by
   the Free Software Foundation, either version 3 of the License, or
   (at your option) any later version.
   
   xtb is distributed in the hope that it will be useful,
   but WITHOUT ANY WARRANTY; without even the implied warranty of
   MERCHANTABILITY or FITNESS FOR A PARTICULAR PURPOSE.  See the
   GNU Lesser General Public License for more details.
   
   Cite this work as:
   * C. Bannwarth, E. Caldeweyher, S. Ehlert, A. Hansen, P. Pracht,
     J. Seibert, S. Spicher, S. Grimme, WIREs Comput. Mol. Sci., 2020, 11,
     e01493. DOI: 10.1002/wcms.1493
   
   for GFN2-xTB:
   * C. Bannwarth, S. Ehlert and S. Grimme., J. Chem. Theory Comput., 2019,
     15, 1652-1671. DOI: 10.1021/acs.jctc.8b01176
   for GFN1-xTB:
   * S. Grimme, C. Bannwarth, P. Shushkov, J. Chem. Theory Comput., 2017,
     13, 1989-2009. DOI: 10.1021/acs.jctc.7b00118
   for GFN0-xTB:
   * P. Pracht, E. Caldeweyher, S. Ehlert, S. Grimme, ChemRxiv, 2019, preprint.
     DOI: 10.26434/chemrxiv.8326202.v1
   for GFN-FF:
   * S. Spicher and S. Grimme, Angew. Chem. Int. Ed., 2020, 59, 15665-15673.
     DOI: 10.1002/anie.202004239
   
   for ALPB and GBSA implicit solvation:
   * S. Ehlert, M. Stahn, S. Spicher, S. Grimme, J. Chem. Theory Comput.,
     2021, 17, 4250-4261. DOI: 10.1021/acs.jctc.1c00471
   
   for ddCOSMO and CPCM-X implicit solvation:
   * M. Stahn, S. Ehlert, S. Grimme, J. Phys. Chem. A,
     2023, XX, XXXX-XXXX. DOI: 10.1021/acs.jpca.3c04382
   
   for DFT-D4:
   * E. Caldeweyher, C. Bannwarth and S. Grimme, J. Chem. Phys., 2017,
     147, 034112. DOI: 10.1063/1.4993215
   * E. Caldeweyher, S. Ehlert, A. Hansen, H. Neugebauer, S. Spicher,
     C. Bannwarth and S. Grimme, J. Chem. Phys., 2019, 150, 154122.
     DOI: 10.1063/1.5090222
   * E. Caldeweyher, J.-M. Mewes, S. Ehlert and S. Grimme, Phys. Chem. Chem. Phys.
     2020, 22, 8499-8512. DOI: 10.1039/D0CP00502A
   
   for sTDA-xTB:
   * S. Grimme and C. Bannwarth, J. Chem. Phys., 2016, 145, 054103.
     DOI: 10.1063/1.4959605
   
   in the mass-spec context:
   * V. Asgeirsson, C. Bauer and S. Grimme, Chem. Sci., 2017, 8, 4879.
     DOI: 10.1039/c7sc00601b
   * J. Koopman and S. Grimme, ACS Omega 2019, 4, 12, 15120-15133.
     DOI: 10.1021/acsomega.9b02011
   
   for metadynamics refer to:
   * S. Grimme, J. Chem. Theory Comput., 2019, 155, 2847-2862
     DOI: 10.1021/acs.jctc.9b00143
   
   for SPH calculations refer to:
   * S. Spicher and S. Grimme, J. Chem. Theory Comput., 2021, 17, 1701-1714
     DOI: 10.1021/acs.jctc.0c01306
   
   for ONIOM refer to:
   * C. Plett, A. Katbashev, S. Ehlert, S. Grimme, M. Bursch,
     Phys. Chem. Chem. Phys., 2023, 25, 17860-17868. DOI: 10.1039/D3CP02178E
   
   for DIPRO refer to:
   * J. Kohn, N. Gildemeister, S. Grimme, D. Fazzi, A. Hansen,
     J. Chem. Phys., 2023, just accepted.
   
   for PTB refer to:
   * S. Grimme, M. Mueller, A. Hansen, J. Chem. Phys., 2023, 158, 124111.
     DOI: 10.1063/5.0137838
   
   with help from (in alphabetical order)
   P. Atkinson, C. Bannwarth, F. Bohle, G. Brandenburg, E. Caldeweyher
   M. Checinski, S. Dohm, S. Ehlert, S. Ehrlich, I. Gerasimov, C. Hölzer
   A. Katbashev, J. Kohn, J. Koopman, C. Lavigne, S. Lehtola, F. März, M. Müller,
   F. Musil, H. Neugebauer, J. Pisarek, C. Plett, P. Pracht, F. Pultar,
   J. Seibert, P. Shushkov, S. Spicher, M. Stahn, M. Steiner, T. Strunk,
   J. Stückrath, T. Rose, and J. Unsleber
   
 * started run on 2026/05/23 at 08:14:17.552     
   ID    Z sym.   atoms
    1    7 N      1, 5, 10, 17, 23, 28, 35
    2    6 C      2, 3, 6-8, 11-14, 16, 20, 21, 24-26, 29, 31-34, 36-40
    3    8 O      4, 9, 15, 18, 19, 22, 27, 30
    4    1 H      41-70

           -------------------------------------------------
          |                Calculation Setup                |
           -------------------------------------------------

          program call               : /home/xchen/software/xtb-6.7.1/xtb-dist/bin/xtb /home/xchen/Test/benchmark/md_sampled/01_6_0109_n1/snap_0054.xyz --charge -1 --gfn 2 --norestart
          coordinate file            : /home/xchen/Test/benchmark/md_sampled/01_6_0109_n1/snap_0054.xyz
          omp threads                :                    48


           -------------------------------------------------
          |                 G F N 2 - x T B                 |
           -------------------------------------------------

        Reference                      10.1021/acs.jctc.8b01176
      * Hamiltonian:
        H0-scaling (s, p, d)           1.850000    2.230000    2.230000
        zeta-weighting                 0.500000
      * Dispersion:
        s8                             2.700000
        a1                             0.520000
        a2                             5.000000
        s9                             5.000000
      * Repulsion:
        kExp                           1.500000    1.000000
        rExp                           1.000000
      * Coulomb:
        alpha                          2.000000
        third order                    shell-resolved
        anisotropic                    true
        a3                             3.000000
        a5                             4.000000
        cn-shift                       1.200000
        cn-exp                         4.000000
        max-rad                        5.000000


          ...................................................
          :                      SETUP                      :
          :.................................................:
          :  # basis functions                 190          :
          :  # atomic orbitals                 190          :
          :  # shells                          110          :
          :  # electrons                       214          :
          :  max. iterations                   250          :
          :  Hamiltonian                  GFN2-xTB          :
          :  restarted?                      false          :
          :  GBSA solvation                  false          :
          :  PC potential                    false          :
          :  electronic temp.          300.0000000     K    :
          :  accuracy                    1.0000000          :
          :  -> integral cutoff          0.2500000E+02      :
          :  -> integral neglect         0.1000000E-07      :
          :  -> SCF convergence          0.1000000E-05 Eh   :
          :  -> wf. convergence          0.1000000E-03 e    :
          :  Broyden damping             0.4000000          :
          :  net charge                         -1          :
          :  unpaired electrons                  0          :
          ...................................................

 iter      E             dE          RMSdq      gap      omega  full diag
   1   -123.0329043 -0.123033E+03  0.454E+00    3.10       0.0  T
   2   -123.4258170 -0.392913E+00  0.242E+00    2.41       1.0  T
   3   -123.4465377 -0.207207E-01  0.140E+00    1.03       1.0  T
   4   -122.6202402  0.826298E+00  0.211E+00    0.11       1.0  T
   5   -123.4462255 -0.825985E+00  0.446E-01    1.29       1.0  T
   6   -123.4581734 -0.119480E-01  0.155E-01    1.00       1.0  T
   7   -123.4584745 -0.301086E-03  0.126E-01    1.01       1.0  T
   8   -123.4586196 -0.145103E-03  0.956E-02    0.95       1.0  T
   9   -123.4587303 -0.110630E-03  0.811E-02    0.87       1.0  T
  10   -123.4588154 -0.851827E-04  0.714E-02    0.79       1.0  T
  11   -123.4588809 -0.654825E-04  0.624E-02    0.71       1.0  T
  12   -123.4589777 -0.967640E-04  0.470E-02    0.58       1.0  T
  13   -123.4591030 -0.125304E-03  0.171E-02    0.34       1.0  T
  14   -123.4591145 -0.114850E-04  0.116E-02    0.25       1.0  T
  15   -123.4591343 -0.198581E-04  0.365E-03    0.29       3.3  T
  16   -123.4591361 -0.180078E-05  0.826E-04    0.28      14.5  T
  17   -123.4591361  0.611905E-07  0.963E-04    0.27      12.4  T
  18   -123.4591362 -0.135319E-06  0.210E-04    0.27      57.0  T

   *** convergence criteria satisfied after 18 iterations ***

         #    Occupation            Energy/Eh            Energy/eV
      -------------------------------------------------------------
         1        2.0000           -0.6557693             -17.8444
       ...           ...                  ...                  ...
       101        2.0000           -0.3119451              -8.4885
       102        2.0000           -0.3082769              -8.3886
       103        2.0000           -0.3020800              -8.2200
       104        2.0000           -0.2944839              -8.0133
       105        2.0000           -0.2177073              -5.9241
       106        2.0000           -0.2040217              -5.5517
       107        1.9899           -0.1954527              -5.3185 (HOMO)
       108        0.0101           -0.1854157              -5.0454 (LUMO)
       109                         -0.1703910              -4.6366
       110                         -0.1687218              -4.5912
       111                         -0.1640143              -4.4631
       112                         -0.1587994              -4.3212
       ...                                ...                  ...
       190                          0.7900875              21.4994
      -------------------------------------------------------------
                  HL-Gap            0.0100370 Eh            0.2731 eV
             Fermi-level           -0.1904341 Eh           -5.1820 eV

 SCC (total)                   0 d,  0 h,  0 min, 17.439 sec
 SCC setup                      ...        0 min,  0.026 sec (  0.150%)
 Dispersion                     ...        0 min,  0.053 sec (  0.302%)
 classical contributions        ...        0 min,  0.006 sec (  0.033%)
 integral evaluation            ...        0 min,  0.259 sec (  1.488%)
 iterations                     ...        0 min, 16.543 sec ( 94.861%)
 molecular gradient             ...        0 min,  0.541 sec (  3.101%)
 printout                       ...        0 min,  0.011 sec (  0.064%)

         :::::::::::::::::::::::::::::::::::::::::::::::::::::
         ::                     SUMMARY                     ::
         :::::::::::::::::::::::::::::::::::::::::::::::::::::
         :: total energy            -122.039687583081 Eh    ::
         :: gradient norm              0.318936972551 Eh/a0 ::
         :: HOMO-LUMO gap              0.273121829830 eV    ::
         ::.................................................::
         :: SCC energy              -123.457708988511 Eh    ::
         :: -> isotropic ES            0.414620492910 Eh    ::
         :: -> anisotropic ES          0.017047692390 Eh    ::
         :: -> anisotropic XC          0.030641095344 Eh    ::
         :: -> dispersion             -0.080016821044 Eh    ::
         :: repulsion energy           1.418021405431 Eh    ::
         :: add. restraining           0.000000000000 Eh    ::
         :: total charge              -0.999999999988 e     ::
         :::::::::::::::::::::::::::::::::::::::::::::::::::::

           -------------------------------------------------
          |                Property Printout                |
           -------------------------------------------------

    * Orbital Energies and Occupations

         #    Occupation            Energy/Eh            Energy/eV
      -------------------------------------------------------------
         1        2.0000           -0.6557693             -17.8444
       ...           ...                  ...                  ...
        95        2.0000           -0.3320770              -9.0363
        96        2.0000           -0.3275279              -8.9125
        97        2.0000           -0.3257379              -8.8638
        98        2.0000           -0.3244053              -8.8275
        99        2.0000           -0.3232171              -8.7952
       100        2.0000           -0.3196724              -8.6987
       101        2.0000           -0.3119451              -8.4885
       102        2.0000           -0.3082769              -8.3886
       103        2.0000           -0.3020800              -8.2200
       104        2.0000           -0.2944839              -8.0133
       105        2.0000           -0.2177073              -5.9241
       106        2.0000           -0.2040217              -5.5517
       107        1.9899           -0.1954527              -5.3185 (HOMO)
       108        0.0101           -0.1854157              -5.0454 (LUMO)
       109                         -0.1703910              -4.6366
       110                         -0.1687218              -4.5912
       111                         -0.1640143              -4.4631
       112                         -0.1587994              -4.3212
       113                         -0.1560016              -4.2450
       114                         -0.1526111              -4.1528
       115                         -0.1311066              -3.5676
       116                         -0.1106595              -3.0112
       117                         -0.0342253              -0.9313
       118                         -0.0254100              -0.6914
       ...                                ...                  ...
       190                          0.7900875              21.4994
      -------------------------------------------------------------
                  HL-Gap            0.0100370 Eh            0.2731 eV
             Fermi-level           -0.1904341 Eh           -5.1820 eV

     #   Z          covCN         q      C6AA      α(0)
     1   7 N        2.687    -0.160    24.458     7.345
     2   6 C        3.727    -0.015    20.951     6.535
     3   6 C        2.739     0.273    22.382     7.746
     4   8 O        0.858    -0.405    21.773     6.256
     5   7 N        2.665    -0.196    25.248     7.463
     6   6 C        3.781     0.020    20.264     6.413
     7   6 C        2.760     0.272    22.404     7.751
     8   6 C        3.803     0.015    20.321     6.418
     9   8 O        0.861    -0.461    22.937     6.421
    10   7 N        2.690    -0.154    24.336     7.327
    11   6 C        3.792    -0.040    21.302     6.573
    12   6 C        2.786     0.265    22.538     7.776
    13   6 C        3.742    -0.081    22.123     6.710
    14   6 C        3.751    -0.012    20.849     6.512
    15   8 O        0.862    -0.471    23.153     6.451
    16   6 C        2.661     0.342    21.197     7.533
    17   7 N        2.726    -0.153    24.299     7.321
    18   8 O        0.855    -0.572    25.434     6.762
    19   8 O        0.856    -0.571    25.409     6.758
    20   6 C        2.755     0.264    22.553     7.777
    21   6 C        3.804     0.030    20.075     6.379
    22   8 O        0.857    -0.456    22.837     6.407
    23   7 N        2.687    -0.174    24.763     7.391
    24   6 C        3.753    -0.118    22.817     6.812
    25   6 C        2.736     0.273    22.391     7.747
    26   6 C        3.701    -0.017    21.035     6.559
    27   8 O        0.858    -0.410    21.872     6.270
    28   7 N        2.689    -0.149    24.215     7.308
    29   6 C        2.752     0.266    22.517     7.770
    30   8 O        0.857    -0.452    22.749     6.395
    31   6 C        3.806    -0.071    21.846     6.654
    32   6 C        3.135    -0.030    28.522     8.742
    33   6 C        3.002     0.007    27.860     8.658
    34   6 C        3.080    -0.011    28.196     8.705
    35   7 N        2.797    -0.115    23.494     7.199
    36   6 C        3.116     0.043    26.874     8.491
    37   6 C        2.910    -0.041    29.012     8.832
    38   6 C        2.913    -0.059    29.478     8.903
    39   6 C        2.919    -0.049    29.226     8.865
    40   6 C        2.903    -0.027    28.669     8.779
    41   1 H        0.859     0.169     1.280     1.772
    42   1 H        0.923     0.107     1.726     2.054
    43   1 H        0.916     0.050     2.324     2.384
    44   1 H        0.851     0.157     1.354     1.823
    45   1 H        0.919     0.067     2.116     2.275
    46   1 H        0.924     0.071     2.071     2.251
    47   1 H        0.859     0.192     1.146     1.677
    48   1 H        0.912     0.030     2.594     2.519
    49   1 H        0.924     0.069     2.101     2.267
    50   1 H        0.923     0.013     2.839     2.635
    51   1 H        0.889    -0.016     3.352     2.865
    52   1 H        0.925     0.078     2.002     2.213
    53   1 H        0.925     0.070     2.087     2.259
    54   1 H        0.861     0.201     1.100     1.643
    55   1 H        0.926     0.062     2.180     2.309
    56   1 H        0.861     0.182     1.204     1.719
    57   1 H        0.924     0.046     2.373     2.409
    58   1 H        0.924     0.050     2.322     2.383
    59   1 H        0.928     0.066     2.133     2.284
    60   1 H        0.887     0.044     2.408     2.429
    61   1 H        0.925     0.072     2.062     2.246
    62   1 H        0.861     0.221     1.006     1.571
    63   1 H        0.928     0.060     2.200     2.319
    64   1 H        0.926     0.059     2.214     2.327
    65   1 H        0.923     0.028     2.621     2.532
    66   1 H        0.859     0.151     1.393     1.849
    67   1 H        0.922     0.025     2.659     2.550
    68   1 H        0.930     0.036     2.505     2.475
    69   1 H        0.926     0.027     2.623     2.533
    70   1 H        0.915     0.014     2.821     2.627

 Mol. C6AA /au·bohr⁶  :      56274.458707
 Mol. C8AA /au·bohr⁸  :    1292545.772910
 Mol. α(0) /au        :        359.912774


Wiberg/Mayer (AO) data.
largest (>0.10) Wiberg bond orders for each atom

 ---------------------------------------------------------------------------
     #   Z sym  total        # sym  WBO       # sym  WBO       # sym  WBO
 ---------------------------------------------------------------------------
     1   7 N    3.432 --     7 C    1.246     2 C    0.995    41 H    0.936
                             9 O    0.179
     2   6 C    3.966 --     1 N    0.995    43 H    0.964    42 H    0.955
                             3 C    0.944
     3   6 C    3.944 --     4 O    1.719     5 N    1.210     2 C    0.944
     4   8 O    2.048 --     3 C    1.719     5 N    0.201
     5   7 N    3.404 --     3 C    1.210     6 C    0.965    44 H    0.946
                             4 O    0.201
     6   6 C    3.955 --    31 C    0.968    45 H    0.965     5 N    0.965
                            29 C    0.909
     7   6 C    3.947 --     9 O    1.641     1 N    1.246     8 C    0.976
     8   6 C    3.954 --    10 N    0.976     7 C    0.976    46 H    0.948
                            11 C    0.910
     9   8 O    1.956 --     7 C    1.641     1 N    0.179
    10   7 N    3.485 --    12 C    1.303     8 C    0.976    47 H    0.927
                            15 O    0.206
    11   6 C    3.977 --    13 C    1.044    48 H    0.971    49 H    0.956
                             8 C    0.910
    12   6 C    3.957 --    15 O    1.607    10 N    1.303    14 C    0.985
    13   6 C    3.957 --    11 C    1.044    51 H    0.975    50 H    0.970
                            16 C    0.827
    14   6 C    3.962 --    12 C    0.985    17 N    0.971    53 H    0.963
                            52 H    0.950
    15   8 O    1.938 --    12 C    1.607    10 N    0.206
    16   6 C    3.939 --    19 O    1.548    18 O    1.537    13 C    0.827
    17   7 N    3.492 --    20 C    1.313    14 C    0.971    54 H    0.923
                            22 O    0.209
    18   8 O    1.850 --    16 C    1.537    19 O    0.236
    19   8 O    1.858 --    16 C    1.548    18 O    0.236
    20   6 C    3.959 --    22 O    1.635    17 N    1.313    21 C    0.939
    21   6 C    3.967 --    24 C    0.989    23 N    0.972    55 H    0.959
                            20 C    0.939
    22   8 O    1.956 --    20 C    1.635    17 N    0.209
    23   7 N    3.438 --    25 C    1.248    21 C    0.972    56 H    0.940
                            27 O    0.192
    24   6 C    3.983 --    21 C    0.989    57 H    0.986    59 H    0.982
                            58 H    0.981
    25   6 C    3.945 --    27 O    1.733    23 N    1.248    26 C    0.890
    26   6 C    3.968 --    28 N    1.024    61 H    0.964    60 H    0.959
                            25 C    0.890
    27   8 O    2.056 --    25 C    1.733    23 N    0.192
    28   7 N    3.468 --    29 C    1.288    26 C    1.024    62 H    0.907
                            30 O    0.189
    29   6 C    3.947 --    30 O    1.669    28 N    1.288     6 C    0.909
    30   8 O    1.980 --    29 C    1.669    28 N    0.189
    31   6 C    3.988 --    32 C    1.000    64 H    0.971    63 H    0.970
                             6 C    0.968
    32   6 C    3.973 --    33 C    1.623    34 C    1.162    31 C    1.000
    33   6 C    3.949 --    32 C    1.623    35 N    1.182    65 H    0.965
    34   6 C    3.985 --    37 C    1.385    36 C    1.249    32 C    1.162
    35   7 N    3.520 --    33 C    1.182    36 C    1.157    66 H    0.949
    36   6 C    3.956 --    38 C    1.348    34 C    1.249    35 N    1.157
    37   6 C    3.981 --    39 C    1.435    34 C    1.385    67 H    0.968
                            38 C    0.118
    38   6 C    3.983 --    40 C    1.463    36 C    1.348    68 H    0.973
                            37 C    0.118
    39   6 C    3.986 --    37 C    1.435    40 C    1.418    69 H    0.974
    40   6 C    3.986 --    38 C    1.463    39 C    1.418    70 H    0.966
    41   1 H    0.971 --     1 N    0.936
    42   1 H    0.988 --     2 C    0.955
    43   1 H    0.997 --     2 C    0.964
    44   1 H    0.975 --     5 N    0.946
    45   1 H    0.995 --     6 C    0.965
    46   1 H    0.995 --     8 C    0.948
    47   1 H    0.963 --    10 N    0.927
    48   1 H    0.999 --    11 C    0.971
    49   1 H    0.995 --    11 C    0.956
    50   1 H    1.000 --    13 C    0.970
    51   1 H    1.000 --    13 C    0.975
    52   1 H    0.993 --    14 C    0.950
    53   1 H    0.995 --    14 C    0.963
    54   1 H    0.960 --    17 N    0.923
    55   1 H    0.996 --    21 C    0.959
    56   1 H    0.967 --    23 N    0.940
    57   1 H    0.997 --    24 C    0.986
    58   1 H    0.997 --    24 C    0.981
    59   1 H    0.996 --    24 C    0.982
    60   1 H    0.998 --    26 C    0.959
    61   1 H    0.995 --    26 C    0.964
    62   1 H    0.951 --    28 N    0.907
    63   1 H    0.996 --    31 C    0.970
    64   1 H    0.996 --    31 C    0.971
    65   1 H    0.998 --    33 C    0.965
    66   1 H    0.977 --    35 N    0.949
    67   1 H    0.999 --    37 C    0.968
    68   1 H    0.998 --    38 C    0.973
    69   1 H    0.999 --    39 C    0.974
    70   1 H    0.999 --    40 C    0.966
 ---------------------------------------------------------------------------

Topologies differ in total number of bonds
Writing topology from bond orders to xtbtopo.mol

molecular dipole:
                 x           y           z       tot (Debye)
 q only:        4.708       9.819       8.645
   full:        4.762      10.039       8.987      36.324
molecular quadrupole (traceless):
                xx          xy          yy          xz          yz          zz
 q only:       71.563     -67.305     -41.230     -59.301    -153.655     -30.333
  q+dip:       66.341     -69.761     -32.836     -61.229    -162.619     -33.505
   full:       69.303     -69.165     -34.684     -62.143    -161.754     -34.619


           -------------------------------------------------
          | TOTAL ENERGY             -122.039687583081 Eh   |
          | GRADIENT NORM               0.318936972551 Eh/α |
          | HOMO-LUMO GAP               0.273121829830 eV   |
           -------------------------------------------------

------------------------------------------------------------------------
 * finished run on 2026/05/23 at 08:14:35.551     
------------------------------------------------------------------------
 total:
 * wall-time:     0 d,  0 h,  0 min, 17.998 sec
 *  cpu-time:     0 d,  0 h,  0 min, 22.010 sec
 * ratio c/w:     1.223 speedup
 SCF:
 * wall-time:     0 d,  0 h,  0 min, 17.441 sec
 *  cpu-time:     0 d,  0 h,  0 min, 21.296 sec
 * ratio c/w:     1.221 speedup

normal termination of xtb
