      -----------------------------------------------------------      
     |                   =====================                   |     
     |                           x T B                           |     
     |                   =====================                   |     
     |                         S. Grimme                         |     
     |          Mulliken Center for Theoretical Chemistry        |     
     |                    University of Bonn                     |     
      -----------------------------------------------------------      

   * xtb version 6.7.1 (edcfbbe) compiled by 'albert@albert-system' on 2024-07-22

   xtb is free software: you can redistribute it and/or modify it under
   the terms of the GNU Lesser General Public License as published by
   the Free Software Foundation, either version 3 of the License, or
   (at your option) any later version.
   
   xtb is distributed in the hope that it will be useful,
   but WITHOUT ANY WARRANTY; without even the implied warranty of
   MERCHANTABILITY or FITNESS FOR A PARTICULAR PURPOSE.  See the
   GNU Lesser General Public License for more details.
   
   Cite this work as:
   * C. Bannwarth, E. Caldeweyher, S. Ehlert, A. Hansen, P. Pracht,
     J. Seibert, S. Spicher, S. Grimme, WIREs Comput. Mol. Sci., 2020, 11,
     e01493. DOI: 10.1002/wcms.1493
   
   for GFN2-xTB:
   * C. Bannwarth, S. Ehlert and S. Grimme., J. Chem. Theory Comput., 2019,
     15, 1652-1671. DOI: 10.1021/acs.jctc.8b01176
   for GFN1-xTB:
   * S. Grimme, C. Bannwarth, P. Shushkov, J. Chem. Theory Comput., 2017,
     13, 1989-2009. DOI: 10.1021/acs.jctc.7b00118
   for GFN0-xTB:
   * P. Pracht, E. Caldeweyher, S. Ehlert, S. Grimme, ChemRxiv, 2019, preprint.
     DOI: 10.26434/chemrxiv.8326202.v1
   for GFN-FF:
   * S. Spicher and S. Grimme, Angew. Chem. Int. Ed., 2020, 59, 15665-15673.
     DOI: 10.1002/anie.202004239
   
   for ALPB and GBSA implicit solvation:
   * S. Ehlert, M. Stahn, S. Spicher, S. Grimme, J. Chem. Theory Comput.,
     2021, 17, 4250-4261. DOI: 10.1021/acs.jctc.1c00471
   
   for ddCOSMO and CPCM-X implicit solvation:
   * M. Stahn, S. Ehlert, S. Grimme, J. Phys. Chem. A,
     2023, XX, XXXX-XXXX. DOI: 10.1021/acs.jpca.3c04382
   
   for DFT-D4:
   * E. Caldeweyher, C. Bannwarth and S. Grimme, J. Chem. Phys., 2017,
     147, 034112. DOI: 10.1063/1.4993215
   * E. Caldeweyher, S. Ehlert, A. Hansen, H. Neugebauer, S. Spicher,
     C. Bannwarth and S. Grimme, J. Chem. Phys., 2019, 150, 154122.
     DOI: 10.1063/1.5090222
   * E. Caldeweyher, J.-M. Mewes, S. Ehlert and S. Grimme, Phys. Chem. Chem. Phys.
     2020, 22, 8499-8512. DOI: 10.1039/D0CP00502A
   
   for sTDA-xTB:
   * S. Grimme and C. Bannwarth, J. Chem. Phys., 2016, 145, 054103.
     DOI: 10.1063/1.4959605
   
   in the mass-spec context:
   * V. Asgeirsson, C. Bauer and S. Grimme, Chem. Sci., 2017, 8, 4879.
     DOI: 10.1039/c7sc00601b
   * J. Koopman and S. Grimme, ACS Omega 2019, 4, 12, 15120-15133.
     DOI: 10.1021/acsomega.9b02011
   
   for metadynamics refer to:
   * S. Grimme, J. Chem. Theory Comput., 2019, 155, 2847-2862
     DOI: 10.1021/acs.jctc.9b00143
   
   for SPH calculations refer to:
   * S. Spicher and S. Grimme, J. Chem. Theory Comput., 2021, 17, 1701-1714
     DOI: 10.1021/acs.jctc.0c01306
   
   for ONIOM refer to:
   * C. Plett, A. Katbashev, S. Ehlert, S. Grimme, M. Bursch,
     Phys. Chem. Chem. Phys., 2023, 25, 17860-17868. DOI: 10.1039/D3CP02178E
   
   for DIPRO refer to:
   * J. Kohn, N. Gildemeister, S. Grimme, D. Fazzi, A. Hansen,
     J. Chem. Phys., 2023, just accepted.
   
   for PTB refer to:
   * S. Grimme, M. Mueller, A. Hansen, J. Chem. Phys., 2023, 158, 124111.
     DOI: 10.1063/5.0137838
   
   with help from (in alphabetical order)
   P. Atkinson, C. Bannwarth, F. Bohle, G. Brandenburg, E. Caldeweyher
   M. Checinski, S. Dohm, S. Ehlert, S. Ehrlich, I. Gerasimov, C. Hölzer
   A. Katbashev, J. Kohn, J. Koopman, C. Lavigne, S. Lehtola, F. März, M. Müller,
   F. Musil, H. Neugebauer, J. Pisarek, C. Plett, P. Pracht, F. Pultar,
   J. Seibert, P. Shushkov, S. Spicher, M. Stahn, M. Steiner, T. Strunk,
   J. Stückrath, T. Rose, and J. Unsleber
   
 * started run on 2026/05/23 at 12:46:52.364     
   ID    Z sym.   atoms
    1    7 N      1, 5, 10, 18, 28, 30, 37-39, 41, 47, 48, 56
    2    6 C      2, 3, 6-8, 11-14, 16, 17, 19-25, 27, 29, 31-34, 36, 40,
                  42-45, 49, 51-55
    3    8 O      4, 9, 15, 26, 35, 46, 50
    4    1 H      57-115

           -------------------------------------------------
          |                Calculation Setup                |
           -------------------------------------------------

          program call               : /home/xchen/software/xtb-6.7.1/xtb-dist/bin/xtb /home/xchen/Test/benchmark/md_sampled/03_6_0978_0/snap_0112.xyz --charge 0 --gfn 2 --norestart
          coordinate file            : /home/xchen/Test/benchmark/md_sampled/03_6_0978_0/snap_0112.xyz
          omp threads                :                    48


           -------------------------------------------------
          |                 G F N 2 - x T B                 |
           -------------------------------------------------

        Reference                      10.1021/acs.jctc.8b01176
      * Hamiltonian:
        H0-scaling (s, p, d)           1.850000    2.230000    2.230000
        zeta-weighting                 0.500000
      * Dispersion:
        s8                             2.700000
        a1                             0.520000
        a2                             5.000000
        s9                             5.000000
      * Repulsion:
        kExp                           1.500000    1.000000
        rExp                           1.000000
      * Coulomb:
        alpha                          2.000000
        third order                    shell-resolved
        anisotropic                    true
        a3                             3.000000
        a5                             4.000000
        cn-shift                       1.200000
        cn-exp                         4.000000
        max-rad                        5.000000


          ...................................................
          :                      SETUP                      :
          :.................................................:
          :  # basis functions                 283          :
          :  # atomic orbitals                 283          :
          :  # shells                          171          :
          :  # electrons                       310          :
          :  max. iterations                   250          :
          :  Hamiltonian                  GFN2-xTB          :
          :  restarted?                      false          :
          :  GBSA solvation                  false          :
          :  PC potential                    false          :
          :  electronic temp.          300.0000000     K    :
          :  accuracy                    1.0000000          :
          :  -> integral cutoff          0.2500000E+02      :
          :  -> integral neglect         0.1000000E-07      :
          :  -> SCF convergence          0.1000000E-05 Eh   :
          :  -> wf. convergence          0.1000000E-03 e    :
          :  Broyden damping             0.4000000          :
          :  net charge                          0          :
          :  unpaired electrons                  0          :
          ...................................................

 iter      E             dE          RMSdq      gap      omega  full diag
   1   -175.3050276 -0.175305E+03  0.380E+00    3.18       0.0  T
   2   -175.6424240 -0.337396E+00  0.207E+00    2.52       1.0  T
   3   -175.6558632 -0.134392E-01  0.105E+00    2.83       1.0  T
   4   -175.6604798 -0.461658E-02  0.203E-01    2.59       1.0  T
   5   -175.6633990 -0.291925E-02  0.886E-02    2.63       1.0  T
   6   -175.6636471 -0.248039E-03  0.393E-02    2.62       1.0  T
   7   -175.6636872 -0.401421E-04  0.183E-02    2.62       1.0  T
   8   -175.6637038 -0.166009E-04  0.555E-03    2.62       1.7  T
   9   -175.6637045 -0.729449E-06  0.241E-03    2.62       3.9  T
  10   -175.6637047 -0.141860E-06  0.107E-03    2.62       8.8  T
  11   -175.6637047 -0.254347E-07  0.443E-04    2.62      21.1  T
  12   -175.6637047 -0.855252E-08  0.144E-04    2.62      64.9  T

   *** convergence criteria satisfied after 12 iterations ***

         #    Occupation            Energy/Eh            Energy/eV
      -------------------------------------------------------------
         1        2.0000           -0.7333559             -19.9556
       ...           ...                  ...                  ...
       149        2.0000           -0.3847080             -10.4684
       150        2.0000           -0.3783795             -10.2962
       151        2.0000           -0.3775401             -10.2734
       152        2.0000           -0.3709106             -10.0930
       153        2.0000           -0.3694478             -10.0532
       154        2.0000           -0.3615394              -9.8380
       155        2.0000           -0.3481330              -9.4732 (HOMO)
       156                         -0.2519027              -6.8546 (LUMO)
       157                         -0.2474706              -6.7340
       158                         -0.2450209              -6.6674
       159                         -0.2437366              -6.6324
       160                         -0.2411076              -6.5609
       ...                                ...                  ...
       283                          0.6865542              18.6821
      -------------------------------------------------------------
                  HL-Gap            0.0962304 Eh            2.6186 eV
             Fermi-level           -0.3000179 Eh           -8.1639 eV

 SCC (total)                   0 d,  0 h,  0 min, 22.511 sec
 SCC setup                      ...        0 min,  0.036 sec (  0.158%)
 Dispersion                     ...        0 min,  0.147 sec (  0.654%)
 classical contributions        ...        0 min,  0.018 sec (  0.081%)
 integral evaluation            ...        0 min,  0.492 sec (  2.186%)
 iterations                     ...        0 min, 20.690 sec ( 91.913%)
 molecular gradient             ...        0 min,  1.002 sec (  4.453%)
 printout                       ...        0 min,  0.059 sec (  0.261%)

         :::::::::::::::::::::::::::::::::::::::::::::::::::::
         ::                     SUMMARY                     ::
         :::::::::::::::::::::::::::::::::::::::::::::::::::::
         :: total energy            -173.526047972368 Eh    ::
         :: gradient norm              0.380690035895 Eh/a0 ::
         :: HOMO-LUMO gap              2.618561415257 eV    ::
         ::.................................................::
         :: SCC energy              -175.657552981905 Eh    ::
         :: -> isotropic ES            0.333134603555 Eh    ::
         :: -> anisotropic ES          0.012734342347 Eh    ::
         :: -> anisotropic XC          0.076671803064 Eh    ::
         :: -> dispersion             -0.137906337951 Eh    ::
         :: repulsion energy           2.131505009537 Eh    ::
         :: add. restraining           0.000000000000 Eh    ::
         :: total charge              -0.000000000000 e     ::
         :::::::::::::::::::::::::::::::::::::::::::::::::::::

           -------------------------------------------------
          |                Property Printout                |
           -------------------------------------------------

    * Orbital Energies and Occupations

         #    Occupation            Energy/Eh            Energy/eV
      -------------------------------------------------------------
         1        2.0000           -0.7333559             -19.9556
       ...           ...                  ...                  ...
       143        2.0000           -0.4152193             -11.2987
       144        2.0000           -0.4127581             -11.2317
       145        2.0000           -0.4078275             -11.0976
       146        2.0000           -0.4040005             -10.9934
       147        2.0000           -0.3962795             -10.7833
       148        2.0000           -0.3849020             -10.4737
       149        2.0000           -0.3847080             -10.4684
       150        2.0000           -0.3783795             -10.2962
       151        2.0000           -0.3775401             -10.2734
       152        2.0000           -0.3709106             -10.0930
       153        2.0000           -0.3694478             -10.0532
       154        2.0000           -0.3615394              -9.8380
       155        2.0000           -0.3481330              -9.4732 (HOMO)
       156                         -0.2519027              -6.8546 (LUMO)
       157                         -0.2474706              -6.7340
       158                         -0.2450209              -6.6674
       159                         -0.2437366              -6.6324
       160                         -0.2411076              -6.5609
       161                         -0.2344304              -6.3792
       162                         -0.2251461              -6.1265
       163                         -0.2080881              -5.6624
       164                         -0.1875908              -5.1046
       165                         -0.1638480              -4.4585
       166                         -0.1162337              -3.1629
       ...                                ...                  ...
       283                          0.6865542              18.6821
      -------------------------------------------------------------
                  HL-Gap            0.0962304 Eh            2.6186 eV
             Fermi-level           -0.3000179 Eh           -8.1639 eV

     #   Z          covCN         q      C6AA      α(0)
     1   7 N        2.684    -0.202    25.397     7.485
     2   6 C        3.800     0.021    20.225     6.403
     3   6 C        2.753     0.268    22.469     7.762
     4   8 O        0.857    -0.446    22.622     6.377
     5   7 N        2.686    -0.182    24.951     7.419
     6   6 C        3.799     0.015    20.324     6.419
     7   6 C        2.754     0.265    22.534     7.773
     8   6 C        3.797     0.039    19.927     6.356
     9   8 O        0.857    -0.422    22.121     6.306
    10   7 N        2.685    -0.197    25.288     7.469
    11   6 C        3.809    -0.080    22.020     6.680
    12   6 C        2.750     0.258    22.654     7.794
    13   6 C        2.955     0.008    27.838     8.654
    14   6 C        3.785     0.029    20.108     6.387
    15   8 O        0.860    -0.409    21.856     6.268
    16   6 C        2.951    -0.034    28.849     8.810
    17   6 C        2.958    -0.019    28.475     8.753
    18   7 N        2.692    -0.206    25.471     7.496
    19   6 C        3.823    -0.066    21.738     6.635
    20   6 C        2.904    -0.039    28.959     8.824
    21   6 C        2.912    -0.023    28.581     8.766
    22   6 C        2.780     0.263    22.575     7.782
    23   6 C        3.794    -0.071    21.871     6.660
    24   6 C        2.926    -0.032    28.790     8.799
    25   6 C        3.789     0.027    20.131     6.390
    26   8 O        0.860    -0.414    21.954     6.282
    27   6 C        3.752     0.013    20.415     6.443
    28   7 N        2.726    -0.201    25.371     7.481
    29   6 C        3.794    -0.075    21.934     6.669
    30   7 N        2.682    -0.254    26.588     7.658
    31   6 C        2.753     0.297    21.966     7.675
    32   6 C        3.798    -0.074    21.917     6.666
    33   6 C        2.732     0.234    23.102     7.869
    34   6 C        3.826     0.019    20.230     6.400
    35   8 O        0.861    -0.402    21.727     6.250
    36   6 C        3.716     0.016    20.427     6.457
    37   7 N        1.794    -0.434    32.323     8.421
    38   7 N        2.653    -0.321    28.253     7.894
    39   7 N        2.770    -0.095    23.088     7.136
    40   6 C        3.830    -0.063    21.683     6.625
    41   7 N        2.706    -0.218    25.757     7.538
    42   6 C        3.746    -0.017    20.949     6.529
    43   6 C        2.779     0.274    22.373     7.747
    44   6 C        3.808    -0.062    21.681     6.628
    45   6 C        2.729     0.226    23.249     7.894
    46   8 O        0.861    -0.457    22.852     6.409
    47   7 N        1.777    -0.397    31.222     8.275
    48   7 N        2.672    -0.335    28.619     7.945
    49   6 C        3.715     0.115    18.821     6.198
    50   8 O        1.640    -0.463    22.127     6.350
    51   6 C        3.746    -0.114    22.755     6.804
    52   6 C        3.785    -0.061    21.689     6.633
    53   6 C        3.782    -0.067    21.802     6.651
    54   6 C        3.778    -0.078    22.019     6.685
    55   6 C        3.719     0.023    20.308     6.437
    56   7 N        2.627    -0.344    28.854     7.978
    57   1 H        0.859     0.181     1.210     1.723
    58   1 H        0.927     0.072     2.067     2.248
    59   1 H        0.861     0.182     1.205     1.719
    60   1 H        0.930     0.086     1.922     2.168
    61   1 H        0.926     0.072     2.063     2.246
    62   1 H        0.861     0.190     1.156     1.684
    63   1 H        0.929     0.058     2.227     2.334
    64   1 H        0.924     0.073     2.054     2.241
    65   1 H        0.919     0.081     1.971     2.196
    66   1 H        0.915     0.007     2.948     2.685
    67   1 H        0.921     0.033     2.541     2.493
    68   1 H        0.857     0.174     1.252     1.753
    69   1 H        0.925     0.055     2.262     2.352
    70   1 H        0.923     0.033     2.540     2.492
    71   1 H        0.920     0.032     2.560     2.502
    72   1 H        0.926     0.044     2.400     2.422
    73   1 H        0.918     0.070     2.091     2.262
    74   1 H        0.925     0.049     2.328     2.386
    75   1 H        0.925     0.034     2.526     2.486
    76   1 H        0.921     0.068     2.111     2.272
    77   1 H        0.921     0.036     2.500     2.473
    78   1 H        0.926     0.044     2.397     2.421
    79   1 H        0.862     0.181     1.208     1.722
    80   1 H        0.922     0.050     2.322     2.383
    81   1 H        0.922     0.080     1.975     2.198
    82   1 H        0.859     0.169     1.276     1.770
    83   1 H        0.927     0.069     2.099     2.265
    84   1 H        0.917     0.031     2.580     2.512
    85   1 H        0.922     0.057     2.238     2.340
    86   1 H        0.919     0.019     2.748     2.593
    87   1 H        0.915     0.040     2.455     2.451
    88   1 H        0.863     0.142     1.457     1.891
    89   1 H        0.861     0.164     1.310     1.793
    90   1 H        0.860     0.192     1.150     1.680
    91   1 H        0.927     0.070     2.088     2.260
    92   1 H        0.918     0.039     2.460     2.453
    93   1 H        0.860     0.175     1.245     1.748
    94   1 H        0.926     0.080     1.981     2.201
    95   1 H        0.920     0.061     2.187     2.313
    96   1 H        0.925     0.061     2.190     2.314
    97   1 H        0.922     0.055     2.264     2.353
    98   1 H        0.850     0.111     1.700     2.043
    99   1 H        0.861     0.165     1.302     1.787
   100   1 H        0.860     0.174     1.247     1.749
   101   1 H        0.920     0.039     2.465     2.455
   102   1 H        0.800     0.300     0.721     1.334
   103   1 H        0.926     0.077     2.006     2.215
   104   1 H        0.923     0.066     2.131     2.283
   105   1 H        0.916     0.030     2.586     2.515
   106   1 H        0.920     0.041     2.438     2.442
   107   1 H        0.913     0.048     2.351     2.399
   108   1 H        0.922     0.040     2.455     2.450
   109   1 H        0.928     0.044     2.397     2.421
   110   1 H        0.919     0.045     2.383     2.414
   111   1 H        0.927     0.057     2.235     2.338
   112   1 H        0.927     0.048     2.347     2.396
   113   1 H        0.917     0.005     2.970     2.695
   114   1 H        0.861     0.135     1.507     1.923
   115   1 H        0.857     0.135     1.509     1.924

 Mol. C6AA /au·bohr⁶  :     125451.037456
 Mol. C8AA /au·bohr⁸  :    2794569.416721
 Mol. α(0) /au        :        533.675628


Wiberg/Mayer (AO) data.
largest (>0.10) Wiberg bond orders for each atom

 ---------------------------------------------------------------------------
     #   Z sym  total        # sym  WBO       # sym  WBO       # sym  WBO
 ---------------------------------------------------------------------------
     1   7 N    3.391 --     7 C    1.216     2 C    0.989    57 H    0.924
                             9 O    0.182
     2   6 C    3.967 --     1 N    0.989    49 C    0.956     3 C    0.949
                            58 H    0.943
     3   6 C    3.953 --     4 O    1.663     5 N    1.246     2 C    0.949
     4   8 O    1.986 --     3 C    1.663     5 N    0.190
     5   7 N    3.435 --     3 C    1.246     6 C    0.973    59 H    0.933
                             4 O    0.190
     6   6 C    3.957 --    52 C    0.984     5 N    0.973    60 H    0.955
                            43 C    0.906
     7   6 C    3.944 --     9 O    1.712     1 N    1.216     8 C    0.927
     8   6 C    3.971 --    10 N    0.997    11 C    0.987    61 H    0.928
                             7 C    0.927
     9   8 O    2.034 --     7 C    1.712     1 N    0.182
    10   7 N    3.402 --    12 C    1.198     8 C    0.997    62 H    0.930
                            15 O    0.194
    11   6 C    3.988 --     8 C    0.987    13 C    0.982    63 H    0.966
                            64 H    0.958
    12   6 C    3.945 --    15 O    1.722    10 N    1.198    14 C    0.944
    13   6 C    3.984 --    17 C    1.450    16 C    1.396    11 C    0.982
                            24 C    0.106
    14   6 C    3.963 --    18 N    0.993    19 C    0.986    12 C    0.944
                            65 H    0.911
    15   8 O    2.049 --    12 C    1.722    10 N    0.194
    16   6 C    3.988 --    20 C    1.461    13 C    1.396    66 H    0.961
                            21 C    0.112
    17   6 C    3.992 --    13 C    1.450    21 C    1.410    67 H    0.963
                            20 C    0.115
    18   7 N    3.410 --    22 C    1.208    14 C    0.993    68 H    0.922
                            26 O    0.195
    19   6 C    3.985 --    23 C    0.988    14 C    0.986    70 H    0.974
                            69 H    0.968
    20   6 C    3.986 --    16 C    1.461    24 C    1.408    71 H    0.969
                            17 C    0.115
    21   6 C    3.991 --    24 C    1.466    17 C    1.410    72 H    0.969
                            16 C    0.112
    22   6 C    3.946 --    26 O    1.718    18 N    1.208    25 C    0.941
    23   6 C    3.989 --    27 C    1.016    19 C    0.988    74 H    0.975
                            73 H    0.959
    24   6 C    3.990 --    21 C    1.466    20 C    1.408    75 H    0.971
                            13 C    0.106
    25   6 C    3.965 --    29 C    0.994    28 N    0.969    22 C    0.941
                            76 H    0.941
    26   8 O    2.040 --    22 C    1.718    18 N    0.195
    27   6 C    3.980 --    23 C    1.016    30 N    0.983    78 H    0.970
                            77 H    0.958
    28   7 N    3.374 --    31 C    1.189    25 C    0.969    79 H    0.933
                            35 O    0.179
    29   6 C    3.986 --    32 C    0.998    25 C    0.994    81 H    0.969
                            80 H    0.959
    30   7 N    3.235 --    33 C    1.112    27 C    0.983    82 H    0.929
                            37 N    0.129
    31   6 C    3.949 --    35 O    1.733    28 N    1.189    34 C    0.937
    32   6 C    3.989 --    36 C    1.003    29 C    0.998    83 H    0.976
                            84 H    0.973
    33   6 C    3.962 --    37 N    1.709    38 N    1.117    30 N    1.112
    34   6 C    3.967 --    40 C    0.981    85 H    0.955    39 N    0.953
                            31 C    0.937
    35   8 O    2.045 --    31 C    1.733    28 N    0.179
    36   6 C    3.979 --    41 N    1.004    32 C    1.003    87 H    0.965
                            86 H    0.963
    37   7 N    2.953 --    33 C    1.709    88 H    0.947    30 N    0.129
                            38 N    0.119
    38   7 N    3.215 --    33 C    1.117    89 H    0.957    90 H    0.948
                            37 N    0.119
    39   7 N    3.494 --    43 C    1.315    34 C    0.953    42 C    0.944
                            46 O    0.192
    40   6 C    3.987 --    44 C    0.991    34 C    0.981    92 H    0.978
                            91 H    0.977
    41   7 N    3.320 --    45 C    1.133    36 C    1.004    93 H    0.933
                            47 N    0.164
    42   6 C    3.956 --    44 C    1.016    94 H    0.960    95 H    0.949
                            39 N    0.944
    43   6 C    3.952 --    46 O    1.639    39 N    1.315     6 C    0.906
    44   6 C    3.992 --    42 C    1.016    40 C    0.991    97 H    0.979
                            96 H    0.977
    45   6 C    3.956 --    47 N    1.705    41 N    1.133    48 N    1.086
    46   8 O    1.999 --    43 C    1.639    39 N    0.192
    47   7 N    2.946 --    45 C    1.705    98 H    0.951    41 N    0.164
    48   7 N    3.137 --    45 C    1.086   100 H    0.950    99 H    0.943
    49   6 C    3.956 --    51 C    1.024    50 O    0.965     2 C    0.956
                           101 H    0.955
    50   8 O    1.923 --    49 C    0.965   102 H    0.886
    51   6 C    3.982 --    49 C    1.024   103 H    0.975   104 H    0.972
                           105 H    0.970
    52   6 C    3.988 --    53 C    1.006     6 C    0.984   106 H    0.973
                           107 H    0.966
    53   6 C    3.986 --    52 C    1.006    54 C    0.987   108 H    0.979
                           109 H    0.977
    54   6 C    3.986 --    55 C    1.002    53 C    0.987   111 H    0.978
                           110 H    0.960
    55   6 C    3.985 --    56 N    1.022    54 C    1.002   112 H    0.977
                           113 H    0.970
    56   7 N    2.997 --    55 C    1.022   114 H    0.968   115 H    0.968
    57   1 H    0.967 --     1 N    0.924
    58   1 H    0.995 --     2 C    0.943
    59   1 H    0.967 --     5 N    0.933
    60   1 H    0.993 --     6 C    0.955
    61   1 H    0.994 --     8 C    0.928
    62   1 H    0.964 --    10 N    0.930
    63   1 H    0.996 --    11 C    0.966
    64   1 H    0.994 --    11 C    0.958
    65   1 H    0.993 --    14 C    0.911
    66   1 H    1.000 --    16 C    0.961
    67   1 H    0.999 --    17 C    0.963
    68   1 H    0.970 --    18 N    0.922
    69   1 H    0.996 --    19 C    0.968
    70   1 H    0.999 --    19 C    0.974
    71   1 H    0.999 --    20 C    0.969
    72   1 H    0.998 --    21 C    0.969
    73   1 H    0.995 --    23 C    0.959
    74   1 H    0.997 --    23 C    0.975
    75   1 H    0.998 --    24 C    0.971
    76   1 H    0.995 --    25 C    0.941
    77   1 H    0.999 --    27 C    0.958
    78   1 H    0.998 --    27 C    0.970
    79   1 H    0.967 --    28 N    0.933
    80   1 H    0.997 --    29 C    0.959
    81   1 H    0.993 --    29 C    0.969
    82   1 H    0.971 --    30 N    0.929
    83   1 H    0.995 --    32 C    0.976
    84   1 H    0.999 --    32 C    0.973
    85   1 H    0.997 --    34 C    0.955
    86   1 H    1.000 --    36 C    0.963
    87   1 H    0.998 --    36 C    0.965
    88   1 H    0.980 --    37 N    0.947
    89   1 H    0.973 --    38 N    0.957
    90   1 H    0.963 --    38 N    0.948
    91   1 H    0.995 --    40 C    0.977
    92   1 H    0.998 --    40 C    0.978
    93   1 H    0.969 --    41 N    0.933
    94   1 H    0.994 --    42 C    0.960
    95   1 H    0.996 --    42 C    0.949
    96   1 H    0.995 --    44 C    0.977
    97   1 H    0.997 --    44 C    0.979
    98   1 H    0.988 --    47 N    0.951
    99   1 H    0.973 --    48 N    0.943
   100   1 H    0.969 --    48 N    0.950
   101   1 H    0.998 --    49 C    0.955
   102   1 H    0.910 --    50 O    0.886
   103   1 H    0.994 --    51 C    0.975
   104   1 H    0.996 --    51 C    0.972
   105   1 H    0.999 --    51 C    0.970
   106   1 H    0.998 --    52 C    0.973
   107   1 H    0.997 --    52 C    0.966
   108   1 H    0.998 --    53 C    0.979
   109   1 H    0.998 --    53 C    0.977
   110   1 H    0.998 --    54 C    0.960
   111   1 H    0.997 --    54 C    0.978
   112   1 H    0.997 --    55 C    0.977
   113   1 H    1.000 --    55 C    0.970
   114   1 H    0.982 --    56 N    0.968
   115   1 H    0.982 --    56 N    0.968
 ---------------------------------------------------------------------------

Topologies differ in total number of bonds
Writing topology from bond orders to xtbtopo.mol

molecular dipole:
                 x           y           z       tot (Debye)
 q only:        2.452      -1.873      -0.894
   full:        2.511      -2.109      -1.038       8.742
molecular quadrupole (traceless):
                xx          xy          yy          xz          yz          zz
 q only:      -35.883      43.889       7.535      -4.112       9.126      28.348
  q+dip:      -63.793      51.943      19.183     -10.362      10.967      44.610
   full:      -64.399      52.542      17.602      -8.820      11.709      46.797


           -------------------------------------------------
          | TOTAL ENERGY             -173.526047972368 Eh   |
          | GRADIENT NORM               0.380690035895 Eh/α |
          | HOMO-LUMO GAP               2.618561415257 eV   |
           -------------------------------------------------

------------------------------------------------------------------------
 * finished run on 2026/05/23 at 12:47:15.759     
------------------------------------------------------------------------
 total:
 * wall-time:     0 d,  0 h,  0 min, 23.395 sec
 *  cpu-time:     0 d,  0 h,  0 min, 25.366 sec
 * ratio c/w:     1.084 speedup
 SCF:
 * wall-time:     0 d,  0 h,  0 min, 22.549 sec
 *  cpu-time:     0 d,  0 h,  0 min, 24.069 sec
 * ratio c/w:     1.067 speedup

normal termination of xtb
