      -----------------------------------------------------------      
     |                   =====================                   |     
     |                           x T B                           |     
     |                   =====================                   |     
     |                         S. Grimme                         |     
     |          Mulliken Center for Theoretical Chemistry        |     
     |                    University of Bonn                     |     
      -----------------------------------------------------------      

   * xtb version 6.7.1 (26dd68d) compiled by 'froitzheim@fs7' on 2026-05-14

   xtb is free software: you can redistribute it and/or modify it under
   the terms of the GNU Lesser General Public License as published by
   the Free Software Foundation, either version 3 of the License, or
   (at your option) any later version.
   
   xtb is distributed in the hope that it will be useful,
   but WITHOUT ANY WARRANTY; without even the implied warranty of
   MERCHANTABILITY or FITNESS FOR A PARTICULAR PURPOSE.  See the
   GNU Lesser General Public License for more details.
   
   Cite this work as:
   * C. Bannwarth, E. Caldeweyher, S. Ehlert, A. Hansen, P. Pracht,
     J. Seibert, S. Spicher, S. Grimme, WIREs Comput. Mol. Sci., 2020, 11,
     e01493. DOI: 10.1002/wcms.1493
   
   for g-xTB:
   * T. Froitzheim, M. Müller, A. Hansen, S. Grimme, ChemRxiv, 2025, preprint.
     DOI: 10.26434/chemrxiv-2025-bjxv
   for GFN2-xTB:
   * C. Bannwarth, S. Ehlert and S. Grimme., J. Chem. Theory Comput., 2019,
     15, 1652-1671. DOI: 10.1021/acs.jctc.8b01176
   for GFN1-xTB:
   * S. Grimme, C. Bannwarth, P. Shushkov, J. Chem. Theory Comput., 2017,
     13, 1989-2009. DOI: 10.1021/acs.jctc.7b00118
   for GFN0-xTB:
   * P. Pracht, E. Caldeweyher, S. Ehlert, S. Grimme, ChemRxiv, 2019, preprint.
     DOI: 10.26434/chemrxiv.8326202.v1
   for GFN-FF:
   * S. Spicher and S. Grimme, Angew. Chem. Int. Ed., 2020, 59, 15665-15673.
     DOI: 10.1002/anie.202004239
   
   for ALPB and GBSA implicit solvation:
   * S. Ehlert, M. Stahn, S. Spicher, S. Grimme, J. Chem. Theory Comput.,
     2021, 17, 4250-4261. DOI: 10.1021/acs.jctc.1c00471
   
   for ddCOSMO and CPCM-X implicit solvation:
   * M. Stahn, S. Ehlert, S. Grimme, J. Phys. Chem. A,
     2023, XX, XXXX-XXXX. DOI: 10.1021/acs.jpca.3c04382
   
   for DFT-D4:
   * E. Caldeweyher, C. Bannwarth and S. Grimme, J. Chem. Phys., 2017,
     147, 034112. DOI: 10.1063/1.4993215
   * E. Caldeweyher, S. Ehlert, A. Hansen, H. Neugebauer, S. Spicher,
     C. Bannwarth and S. Grimme, J. Chem. Phys., 2019, 150, 154122.
     DOI: 10.1063/1.5090222
   * E. Caldeweyher, J.-M. Mewes, S. Ehlert and S. Grimme, Phys. Chem. Chem. Phys.
     2020, 22, 8499-8512. DOI: 10.1039/D0CP00502A
   
   for sTDA-xTB:
   * S. Grimme and C. Bannwarth, J. Chem. Phys., 2016, 145, 054103.
     DOI: 10.1063/1.4959605
   
   in the mass-spec context:
   * V. Asgeirsson, C. Bauer and S. Grimme, Chem. Sci., 2017, 8, 4879.
     DOI: 10.1039/c7sc00601b
   * J. Koopman and S. Grimme, ACS Omega 2019, 4, 12, 15120-15133.
     DOI: 10.1021/acsomega.9b02011
   
   for metadynamics refer to:
   * S. Grimme, J. Chem. Theory Comput., 2019, 155, 2847-2862
     DOI: 10.1021/acs.jctc.9b00143
   
   for SPH calculations refer to:
   * S. Spicher and S. Grimme, J. Chem. Theory Comput., 2021, 17, 1701-1714
     DOI: 10.1021/acs.jctc.0c01306
   
   for ONIOM refer to:
   * C. Plett, A. Katbashev, S. Ehlert, S. Grimme, M. Bursch,
     Phys. Chem. Chem. Phys., 2023, 25, 17860-17868. DOI: 10.1039/D3CP02178E
   
   for DIPRO refer to:
   * J. Kohn, N. Gildemeister, S. Grimme, D. Fazzi, A. Hansen,
     J. Chem. Phys. 159, 144106 (2023). DOI: 10.1063/5.0167484
   
   for PTB refer to:
   * S. Grimme, M. Mueller, A. Hansen, J. Chem. Phys., 2023, 158, 124111.
     DOI: 10.1063/5.0137838
   
   with help from (in alphabetical order)
   P. Atkinson, C. Bannwarth, F. Bohle, G. Brandenburg, E. Caldeweyher,
   M. Checinski, S. Dohm, S. Ehlert, S. Ehrlich, M. Friede, T. Froitzheim,
   I. Gerasimov, C. Hölzer, A. Katbashev, J. Kohn, J. Koopman, C. Lavigne,
   S. Lehtola, F. März, M. Müller, F. Musil, H. Neugebauer, J. Pisarek,
   C. Plett, P. Pracht, F. Pultar, J. Seibert, P. Shushkov, S. Spicher,
   M. Stahn, M. Steiner, T. Strunk, J. Stückrath, T. Rose, and J. Unsleber
   
 * started run on 2026/05/23 at 12:56:17.259     
   ID    Z sym.   atoms
    1    7 N      1, 5, 10, 17, 27, 34, 39, 43, 54, 56, 57
    2    6 C      2, 3, 6-8, 11-14, 16, 18, 21-23, 28-31, 33, 35-38, 40,
                  44-48, 50-53, 55, 58
    3    8 O      4, 9, 15, 19, 20, 24-26, 32, 41, 49
    4   16 S      42
    5    1 H      59-117

           -------------------------------------------------
          |                Calculation Setup                |
           -------------------------------------------------

          program call               : /home/xchen/software/xtb-6.7.1-gxtb/bin/xtb /home/xchen/Test/benchmark/md_sampled/04_7_0231_n2/snap_0137.xyz --charge -2 --gxtb --norestart
          coordinate file            : /home/xchen/Test/benchmark/md_sampled/04_7_0231_n2/snap_0137.xyz
          omp threads                :                    48

core increment energy         -2.9312527735450E+03 Eh
dispersion energy              2.3295883301433E-02 Eh
molecular charge              -2.0000000000000E+00 e
number of electrons            3.2799999999710E+02 e
number of unpaired electrons   0.0000000000000E+00 e
wavefunction                   restricted
integral cutoff                2.6907767250513E+01 bohr
energy convergence             1.0000000000000E-06 Eh
density convergence            2.0000000000000E-05 e

------------------------------------------------------------
  cycle        total energy    energy error   density error
------------------------------------------------------------
      1     -3195.851071426  -2.6462159E+02   0.0000000E+00
      2     -3196.342070170  -4.9099874E-01   1.9974151E-02
      3     -3196.656784960  -3.1471479E-01   1.5749208E-02
      4     -3197.321915203  -6.6513024E-01   1.2464319E-02
      5     -3197.332137183  -1.0221980E-02   8.9714669E-04
      6     -3197.332968255  -8.3107127E-04   1.9287127E-04
      7     -3197.333036072  -6.7817546E-05   5.1005135E-05
      8     -3197.333040929  -4.8567402E-06   1.5698444E-05
      9     -3197.333041480  -5.5129544E-07   2.3502458E-06
------------------------------------------------------------

electronic energy             -2.6610356381843E+02 Eh
total energy                  -3.1973330414801E+03 Eh

Post processing:
 | Mayer-Wiberg bond orders
 | Molecular Multipole Moments

 total:                                  13.321 sec
 - increment                              0.000 sec (  0%)
 - repulsion                              0.011 sec (  0%)
 - dispersion                             0.550 sec (  4%)
 - coulomb                                0.183 sec (  1%)
 - exchange                               0.011 sec (  0%)
 - hamiltonian                            0.422 sec (  3%)
 - acp                                    0.314 sec (  2%)
 - spin polarization                      0.000 sec (  0%)
 - post processing                        0.134 sec (  1%)
 - scc                                   10.544 sec ( 79%)
 - coulomb gradient                       0.088 sec (  0%)
 - dispersion gradient                    0.034 sec (  0%)
 - exchange gradient                      0.093 sec (  0%)
 - repulsion gradient                     0.004 sec (  0%)
 - acp gradient                           0.323 sec (  2%)
 - hamiltonian gradient                   0.735 sec (  5%)
 - gradient                               1.277 sec (  9%)

         :::::::::::::::::::::::::::::::::::::::::::::::::::::
         ::                     SUMMARY                     ::
         :::::::::::::::::::::::::::::::::::::::::::::::::::::
         :: total energy           -3197.333041480128 Eh    ::
         :: gradient norm              0.457337691640 Eh/a0 ::
         :: HOMO-LUMO gap              5.958715154901 eV    ::
         ::.................................................::
         :: add. restraining           0.000000000000 Eh    ::
         :: total charge              -2.000000000000 e     ::
         :::::::::::::::::::::::::::::::::::::::::::::::::::::

           -------------------------------------------------
          |                Property Printout                |
           -------------------------------------------------

    * Orbital Energies and Occupations
------------------------------------------------------------------
      #    Occupation            Energy/Eh            Energy/eV
------------------------------------------------------------------
      1        2.0000           -1.2071216             -32.8475
    ...           ...                  ...                  ...
    152        2.0000           -0.2086523              -5.6777
    153        2.0000           -0.2057596              -5.5990
    154        2.0000           -0.2027935              -5.5183
    155        2.0000           -0.2021051              -5.4996
    156        2.0000           -0.1956392              -5.3236
    157        2.0000           -0.1895518              -5.1580
    158        2.0000           -0.1814532              -4.9376
    159        2.0000           -0.1770555              -4.8179
    160        2.0000           -0.1732982              -4.7157
    161        2.0000           -0.1673068              -4.5527
    162        2.0000           -0.1231638              -3.3515
    163        2.0000           -0.1126462              -3.0653
    164        2.0000           -0.1040959              -2.8326 (HOMO)
    165                          0.1148828               3.1261 (LUMO)
    166                          0.1500787               4.0838
    167                          0.1544001               4.2014
    168                          0.1665908               4.5332
    169                          0.1782577               4.8506
    170                          0.1805840               4.9139
    171                          0.1818134               4.9474
    172                          0.1946501               5.2967
    173                          0.1969843               5.3602
    174                          0.2091333               5.6908
    175                          0.2358571               6.4180
    ...                                ...                  ...
    296                          0.9768022              26.5801
------------------------------------------------------------------
               HL-Gap            0.2189787 Eh            5.9587 eV
------------------------------------------------------------------

Atomic charges and shell populations (in atomic units):
-----------------------------------------------------------------
     #    Z                q          p(s)       p(p)       p(d)
-----------------------------------------------------------------
     1    7 N      -0.366583      1.348524   4.018059
     2    6 C       0.036272      1.110978   2.852751
     3    6 C       0.427341      1.107050   2.465609
     4    8 O      -0.594049      1.858994   4.735055
     5    7 N      -0.295263      1.335207   3.960056
     6    6 C      -0.024388      1.089700   2.934688
     7    6 C       0.419524      1.125389   2.455087
     8    6 C      -0.015949      1.132490   2.883459
     9    8 O      -0.523183      1.860053   4.663130
    10    7 N      -0.326528      1.390736   3.935792
    11    6 C      -0.187740      1.147156   3.040583
    12    6 C       0.431760      1.118236   2.450004
    13    6 C      -0.193725      1.152136   3.041589
    14    6 C      -0.012570      1.151410   2.861160
    15    8 O      -0.555318      1.850248   4.705069
    16    6 C       0.500357      1.083224   2.416420
    17    7 N      -0.526658      1.564723   3.961935
    18    6 C      -0.215844      1.156567   3.059277
    19    8 O      -0.707614      1.860996   4.846619
    20    8 O      -0.724409      1.864698   4.859711
    21    6 C       0.384318      1.091575   2.524107
    22    6 C       0.538980      1.061962   2.399059
    23    6 C      -0.009350      1.155619   2.853731
    24    8 O      -0.684109      1.853038   4.831071
    25    8 O      -0.572233      1.850441   4.721793
    26    8 O      -0.477151      1.770484   4.706667
    27    7 N      -0.348944      1.364722   3.984222
    28    6 C      -0.169041      1.146829   3.022212
    29    6 C       0.416690      1.082310   2.501000
    30    6 C      -0.188030      1.138352   3.049678
    31    6 C      -0.015381      1.147313   2.868068
    32    8 O      -0.538555      1.842454   4.696101
    33    6 C      -0.212327      1.160501   3.051826
    34    7 N      -0.331225      1.359420   3.971804
    35    6 C      -0.160588      1.160446   3.000143
    36    6 C      -0.097599      1.123364   2.974235
    37    6 C       0.423431      1.093460   2.483109
    38    6 C      -0.120105      1.165271   2.954834
    39    7 N      -0.549103      1.350032   4.199070
    40    6 C      -0.004694      1.135763   2.868931
    41    8 O      -0.558664      1.849184   4.709480
    42   16 S      -0.229915      1.899384   4.267044   0.063488
    43    7 N      -0.334824      1.359059   3.975765
    44    6 C      -0.122426      1.148248   2.974177
    45    6 C      -0.195703      1.208557   2.987146
    46    6 C       0.402042      1.108955   2.489003
    47    6 C      -0.255491      1.183546   3.071945
    48    6 C      -0.168161      1.173255   2.994906
    49    8 O      -0.547448      1.861446   4.686002
    50    6 C      -0.264718      1.180891   3.083827
    51    6 C      -0.164827      1.163242   3.001584
    52    6 C      -0.194733      1.155194   3.039539
    53    6 C      -0.071688      1.141245   2.930442
    54    7 N      -0.385189      1.350181   4.035008
    55    6 C       0.292082      1.080658   2.627260
    56    7 N      -0.543603      1.567298   3.976305
    57    7 N      -0.480795      1.443628   4.037167
    58    6 C      -0.255086      1.168511   3.086576
    59    1 H       0.295531      0.704469
    60    1 H       0.089990      0.910010
    61    1 H       0.290212      0.709788
    62    1 H       0.156514      0.843486
    63    1 H       0.112610      0.887390
    64    1 H       0.282711      0.717289
    65    1 H       0.120852      0.879148
    66    1 H       0.109662      0.890338
    67    1 H       0.103286      0.896714
    68    1 H       0.100560      0.899440
    69    1 H       0.096098      0.903902
    70    1 H       0.407386      0.592614
    71    1 H       0.131747      0.868253
    72    1 H       0.103189      0.896811
    73    1 H       0.109313      0.890687
    74    1 H       0.265719      0.734281
    75    1 H       0.093035      0.906965
    76    1 H       0.126490      0.873510
    77    1 H       0.103009      0.896991
    78    1 H       0.079993      0.920007
    79    1 H       0.112643      0.887357
    80    1 H       0.110844      0.889156
    81    1 H       0.067992      0.932008
    82    1 H       0.268875      0.731125
    83    1 H       0.102994      0.897006
    84    1 H       0.120509      0.879491
    85    1 H       0.082264      0.917736
    86    1 H       0.072641      0.927359
    87    1 H       0.111619      0.888381
    88    1 H       0.105726      0.894274
    89    1 H       0.276537      0.723463
    90    1 H       0.227023      0.772977
    91    1 H       0.134414      0.865586
    92    1 H       0.272603      0.727397
    93    1 H       0.104670      0.895330
    94    1 H       0.097306      0.902694
    95    1 H       0.135761      0.864239
    96    1 H       0.101428      0.898572
    97    1 H       0.096557      0.903443
    98    1 H       0.070748      0.929252
    99    1 H       0.090097      0.909903
   100    1 H       0.091055      0.908945
   101    1 H       0.112706      0.887294
   102    1 H       0.068245      0.931755
   103    1 H       0.094440      0.905560
   104    1 H       0.087063      0.912937
   105    1 H       0.097796      0.902204
   106    1 H       0.088867      0.911133
   107    1 H       0.092837      0.907163
   108    1 H       0.132024      0.867976
   109    1 H       0.092498      0.907502
   110    1 H       0.098700      0.901300
   111    1 H       0.263598      0.736402
   112    1 H       0.212799      0.787201
   113    1 H       0.235826      0.764174
   114    1 H       0.233690      0.766310
   115    1 H       0.153060      0.846940
   116    1 H       0.079460      0.920540
   117    1 H       0.072904      0.927096
-----------------------------------------------------------------


Wiberg/Mayer (AO) data.
largest (>0.10) Wiberg bond orders for each atom

 ---------------------------------------------------------------------------
     #   Z sym  total        # sym  WBO       # sym  WBO       # sym  WBO
 ---------------------------------------------------------------------------
     1   7 N    3.300 --     7 C    1.182     2 C    1.015    59 N    0.824
                             9 C    0.160
     2   6 C    3.956 --     1 N    1.015    51 C    0.972    60 N    0.935
                             3 C    0.913
     3   6 C    3.861 --     4 C    1.588     5 N    1.273     2 C    0.913
     4   8 C    1.874 --     3 C    1.588     5 N    0.154
     5   7 N    3.373 --     3 C    1.273     6 C    0.984    61 N    0.875
                             4 C    0.154
     6   6 C    3.943 --    58 C    1.002     5 N    0.984    46 C    0.936
                            62 N    0.906
     7   6 C    3.851 --     9 C    1.676     1 N    1.182     8 C    0.910
     8   6 C    3.928 --    11 C    0.990    10 N    0.958    63 N    0.938
                             7 C    0.910
     9   8 C    1.966 --     7 C    1.676     1 N    0.160
    10   7 N    3.318 --    12 C    1.239     8 C    0.958    64 N    0.878
                            15 C    0.149
    11   6 C    3.952 --    13 C    1.001     8 C    0.990    66 N    0.954
                            65 N    0.948
    12   6 C    3.835 --    15 C    1.614    10 N    1.239    14 C    0.880
    13   6 C    3.960 --    11 C    1.001    68 N    0.953    67 N    0.950
                            16 C    0.946
    14   6 C    3.954 --    17 N    0.994    18 C    0.986    69 N    0.940
                            12 C    0.880
    15   8 C    1.961 --    12 C    1.614    10 N    0.149
    16   6 C    3.867 --    19 C    1.454    20 C    1.444    13 C    0.946
    17   7 N    2.936 --    21 C    1.498    14 C    0.994    24 C    0.190
                            70 N    0.114
    18   6 C    3.960 --    14 C    0.986    22 C    0.959    72 N    0.956
                            71 N    0.932
    19   8 C    1.740 --    16 C    1.454    20 C    0.191
    20   8 C    1.708 --    16 C    1.444    19 C    0.191
    21   6 C    3.905 --    17 N    1.498    24 C    1.447    23 C    0.896
    22   6 C    3.832 --    25 C    1.633    26 C    1.204    18 C    0.959
    23   6 C    3.895 --    28 C    0.973    73 N    0.947    27 N    0.934
                            21 C    0.896
    24   8 C    1.779 --    21 C    1.447    17 N    0.190
    25   8 C    1.894 --    22 C    1.633    26 C    0.154
    26   8 C    2.150 --    22 C    1.204    70 N    0.696    25 C    0.154
    27   7 N    3.353 --    29 C    1.263    23 C    0.934    74 N    0.886
                            32 C    0.183
    28   6 C    3.962 --    30 C    1.017    23 C    0.973    75 N    0.957
                            76 N    0.946
    29   6 C    3.888 --    32 C    1.654    27 N    1.263    31 C    0.912
    30   6 C    3.969 --    28 C    1.017    33 C    1.006    78 N    0.955
                            77 N    0.949
    31   6 C    3.915 --    35 C    0.985    79 N    0.938    34 N    0.929
                            29 C    0.912
    32   8 C    1.967 --    29 C    1.654    27 N    0.183
    33   6 C    3.963 --    30 C    1.006    36 C    0.986    81 N    0.961
                            80 N    0.949
    34   7 N    3.358 --    37 C    1.287    31 C    0.929    82 N    0.881
                            41 C    0.175
    35   6 C    3.949 --    38 C    1.005    31 C    0.985    83 N    0.951
                            84 N    0.942
    36   6 C    3.961 --    39 N    1.036    33 C    0.986    86 N    0.959
                            85 N    0.957
    37   6 C    3.878 --    41 C    1.626    34 N    1.287    40 C    0.885
    38   6 C    3.944 --    35 C    1.005    42 O    0.998    88 N    0.958
                            87 N    0.953
    39   7 N    2.942 --    36 C    1.036    90 N    0.929    89 N    0.889
    40   6 C    3.925 --    44 C    0.975    43 N    0.972    91 N    0.939
                            37 C    0.885
    41   8 C    1.924 --    37 C    1.626    34 N    0.175
    42  16 O    2.058 --    38 C    0.998    45 C    0.975
    43   7 N    3.346 --    46 C    1.228    40 C    0.972    92 N    0.881
                            49 C    0.154
    44   6 C    3.968 --    48 C    0.992    47 C    0.991    40 C    0.975
                            93 N    0.952
    45   6 C    3.912 --    94 N    0.975    42 O    0.975    96 N    0.967
                            95 N    0.966
    46   6 C    3.870 --    49 C    1.631    43 N    1.228     6 C    0.936
    47   6 C    3.956 --    44 C    0.991    98 N    0.981    99 N    0.973
                            97 N    0.969
    48   6 C    3.954 --    50 C    1.007    44 C    0.992   100 N    0.959
                           101 N    0.952
    49   8 C    1.914 --    46 C    1.631    43 N    0.154
    50   6 C    3.959 --    48 C    1.007   104 N    0.978   103 N    0.976
                           102 N    0.976
    51   6 C    3.961 --    52 C    1.012     2 C    0.972   105 N    0.955
                           106 N    0.952
    52   6 C    3.959 --    51 C    1.012    53 C    1.000   107 N    0.955
                           108 N    0.952
    53   6 C    3.925 --    52 C    1.000    54 N    0.973   109 N    0.955
                           110 N    0.952
    54   7 N    3.224 --    55 C    1.127    53 C    0.973   111 N    0.888
                            56 N    0.136
    55   6 C    3.943 --    56 N    1.726    54 N    1.127    57 N    1.063
    56   7 N    2.900 --    55 C    1.726   112 N    0.909    54 N    0.136
    57   7 N    3.056 --    55 C    1.063   114 N    0.926   113 N    0.916
    58   6 C    3.950 --     6 C    1.002   116 N    0.973   117 N    0.967
                           115 N    0.957
    59   1 N    0.913 --     1 N    0.824
    60   1 N    0.992 --     2 C    0.935
    61   1 N    0.916 --     5 N    0.875
    62   1 N    0.976 --     6 C    0.906
    63   1 N    0.987 --     8 C    0.938
    64   1 N    0.920 --    10 N    0.878
    65   1 N    0.985 --    11 C    0.948
    66   1 N    0.988 --    11 C    0.954
    67   1 N    0.989 --    13 C    0.950
    68   1 N    0.990 --    13 C    0.953
    69   1 N    0.991 --    14 C    0.940
    70   1 N    0.834 --    26 C    0.696    17 N    0.114
    71   1 N    0.983 --    18 C    0.932
    72   1 N    0.989 --    18 C    0.956
    73   1 N    0.988 --    23 C    0.947
    74   1 N    0.929 --    27 N    0.886
    75   1 N    0.991 --    28 C    0.957
    76   1 N    0.984 --    28 C    0.946
    77   1 N    0.989 --    30 C    0.949
    78   1 N    0.994 --    30 C    0.955
    79   1 N    0.987 --    31 C    0.938
    80   1 N    0.988 --    33 C    0.949
    81   1 N    0.995 --    33 C    0.961
    82   1 N    0.928 --    34 N    0.881
    83   1 N    0.989 --    35 C    0.951
    84   1 N    0.985 --    35 C    0.942
    85   1 N    0.993 --    36 C    0.957
    86   1 N    0.995 --    36 C    0.959
    87   1 N    0.988 --    38 C    0.953
    88   1 N    0.989 --    38 C    0.958
    89   1 N    0.924 --    39 N    0.889
    90   1 N    0.948 --    39 N    0.929
    91   1 N    0.982 --    40 C    0.939
    92   1 N    0.926 --    43 N    0.881
    93   1 N    0.989 --    44 C    0.952
    94   1 N    0.991 --    45 C    0.975
    95   1 N    0.982 --    45 C    0.966
    96   1 N    0.990 --    45 C    0.967
    97   1 N    0.991 --    47 C    0.969
    98   1 N    0.995 --    47 C    0.981
    99   1 N    0.992 --    47 C    0.973
   100   1 N    0.992 --    48 C    0.959
   101   1 N    0.987 --    48 C    0.952
   102   1 N    0.995 --    50 C    0.976
   103   1 N    0.991 --    50 C    0.976
   104   1 N    0.992 --    50 C    0.978
   105   1 N    0.990 --    51 C    0.955
   106   1 N    0.992 --    51 C    0.952
   107   1 N    0.991 --    52 C    0.955
   108   1 N    0.983 --    52 C    0.952
   109   1 N    0.991 --    53 C    0.955
   110   1 N    0.990 --    53 C    0.952
   111   1 N    0.931 --    54 N    0.888
   112   1 N    0.955 --    56 N    0.909
   113   1 N    0.944 --    57 N    0.916
   114   1 N    0.945 --    57 N    0.926
   115   1 N    0.977 --    58 C    0.957
   116   1 N    0.994 --    58 C    0.973
   117   1 N    0.995 --    58 C    0.967
 ---------------------------------------------------------------------------

Topologies differ in total number of bonds
Writing topology from bond orders to xtbtopo.mol

Atomic dipole moments (in atomic units):
---------------------------------------------------------
     #    Z                 x            y            z
---------------------------------------------------------
           total    -0.886012    12.859777     2.470595
---------------------------------------------------------
         |total|    13.124890    33.360142 Debye


           -------------------------------------------------
          | TOTAL ENERGY            -3197.333041480128 Eh   |
          | GRADIENT NORM               0.457337691640 Eh/α |
           -------------------------------------------------

------------------------------------------------------------------------
 * finished run on 2026/05/23 at 12:56:31.363     
------------------------------------------------------------------------
 total:
 * wall-time:     0 d,  0 h,  0 min, 14.104 sec
 *  cpu-time:     0 d,  0 h,  0 min, 35.205 sec
 * ratio c/w:     2.496 speedup
 SCF:
 * wall-time:     0 d,  0 h,  0 min, 13.726 sec
 *  cpu-time:     0 d,  0 h,  0 min, 34.725 sec
 * ratio c/w:     2.530 speedup

normal termination of xtb
