      -----------------------------------------------------------      
     |                   =====================                   |     
     |                           x T B                           |     
     |                   =====================                   |     
     |                         S. Grimme                         |     
     |          Mulliken Center for Theoretical Chemistry        |     
     |                    University of Bonn                     |     
      -----------------------------------------------------------      

   * xtb version 6.7.1 (26dd68d) compiled by 'froitzheim@fs7' on 2026-05-14

   xtb is free software: you can redistribute it and/or modify it under
   the terms of the GNU Lesser General Public License as published by
   the Free Software Foundation, either version 3 of the License, or
   (at your option) any later version.
   
   xtb is distributed in the hope that it will be useful,
   but WITHOUT ANY WARRANTY; without even the implied warranty of
   MERCHANTABILITY or FITNESS FOR A PARTICULAR PURPOSE.  See the
   GNU Lesser General Public License for more details.
   
   Cite this work as:
   * C. Bannwarth, E. Caldeweyher, S. Ehlert, A. Hansen, P. Pracht,
     J. Seibert, S. Spicher, S. Grimme, WIREs Comput. Mol. Sci., 2020, 11,
     e01493. DOI: 10.1002/wcms.1493
   
   for g-xTB:
   * T. Froitzheim, M. Müller, A. Hansen, S. Grimme, ChemRxiv, 2025, preprint.
     DOI: 10.26434/chemrxiv-2025-bjxv
   for GFN2-xTB:
   * C. Bannwarth, S. Ehlert and S. Grimme., J. Chem. Theory Comput., 2019,
     15, 1652-1671. DOI: 10.1021/acs.jctc.8b01176
   for GFN1-xTB:
   * S. Grimme, C. Bannwarth, P. Shushkov, J. Chem. Theory Comput., 2017,
     13, 1989-2009. DOI: 10.1021/acs.jctc.7b00118
   for GFN0-xTB:
   * P. Pracht, E. Caldeweyher, S. Ehlert, S. Grimme, ChemRxiv, 2019, preprint.
     DOI: 10.26434/chemrxiv.8326202.v1
   for GFN-FF:
   * S. Spicher and S. Grimme, Angew. Chem. Int. Ed., 2020, 59, 15665-15673.
     DOI: 10.1002/anie.202004239
   
   for ALPB and GBSA implicit solvation:
   * S. Ehlert, M. Stahn, S. Spicher, S. Grimme, J. Chem. Theory Comput.,
     2021, 17, 4250-4261. DOI: 10.1021/acs.jctc.1c00471
   
   for ddCOSMO and CPCM-X implicit solvation:
   * M. Stahn, S. Ehlert, S. Grimme, J. Phys. Chem. A,
     2023, XX, XXXX-XXXX. DOI: 10.1021/acs.jpca.3c04382
   
   for DFT-D4:
   * E. Caldeweyher, C. Bannwarth and S. Grimme, J. Chem. Phys., 2017,
     147, 034112. DOI: 10.1063/1.4993215
   * E. Caldeweyher, S. Ehlert, A. Hansen, H. Neugebauer, S. Spicher,
     C. Bannwarth and S. Grimme, J. Chem. Phys., 2019, 150, 154122.
     DOI: 10.1063/1.5090222
   * E. Caldeweyher, J.-M. Mewes, S. Ehlert and S. Grimme, Phys. Chem. Chem. Phys.
     2020, 22, 8499-8512. DOI: 10.1039/D0CP00502A
   
   for sTDA-xTB:
   * S. Grimme and C. Bannwarth, J. Chem. Phys., 2016, 145, 054103.
     DOI: 10.1063/1.4959605
   
   in the mass-spec context:
   * V. Asgeirsson, C. Bauer and S. Grimme, Chem. Sci., 2017, 8, 4879.
     DOI: 10.1039/c7sc00601b
   * J. Koopman and S. Grimme, ACS Omega 2019, 4, 12, 15120-15133.
     DOI: 10.1021/acsomega.9b02011
   
   for metadynamics refer to:
   * S. Grimme, J. Chem. Theory Comput., 2019, 155, 2847-2862
     DOI: 10.1021/acs.jctc.9b00143
   
   for SPH calculations refer to:
   * S. Spicher and S. Grimme, J. Chem. Theory Comput., 2021, 17, 1701-1714
     DOI: 10.1021/acs.jctc.0c01306
   
   for ONIOM refer to:
   * C. Plett, A. Katbashev, S. Ehlert, S. Grimme, M. Bursch,
     Phys. Chem. Chem. Phys., 2023, 25, 17860-17868. DOI: 10.1039/D3CP02178E
   
   for DIPRO refer to:
   * J. Kohn, N. Gildemeister, S. Grimme, D. Fazzi, A. Hansen,
     J. Chem. Phys. 159, 144106 (2023). DOI: 10.1063/5.0167484
   
   for PTB refer to:
   * S. Grimme, M. Mueller, A. Hansen, J. Chem. Phys., 2023, 158, 124111.
     DOI: 10.1063/5.0137838
   
   with help from (in alphabetical order)
   P. Atkinson, C. Bannwarth, F. Bohle, G. Brandenburg, E. Caldeweyher,
   M. Checinski, S. Dohm, S. Ehlert, S. Ehrlich, M. Friede, T. Froitzheim,
   I. Gerasimov, C. Hölzer, A. Katbashev, J. Kohn, J. Koopman, C. Lavigne,
   S. Lehtola, F. März, M. Müller, F. Musil, H. Neugebauer, J. Pisarek,
   C. Plett, P. Pracht, F. Pultar, J. Seibert, P. Shushkov, S. Spicher,
   M. Stahn, M. Steiner, T. Strunk, J. Stückrath, T. Rose, and J. Unsleber
   
 * started run on 2026/05/23 at 12:43:26.407     
   ID    Z sym.   atoms
    1    7 N      1, 5, 13, 19, 23, 28, 35
    2    6 C      2, 3, 6-10, 12, 14, 15, 17, 20, 21, 24-26, 29, 30, 32, 33,
                  36, 37, 39, 41-44
    3    8 O      4, 11, 18, 22, 27, 31, 34, 38, 40
    4   16 S      16
    5    1 H      45-89

           -------------------------------------------------
          |                Calculation Setup                |
           -------------------------------------------------

          program call               : /home/xchen/software/xtb-6.7.1-gxtb/bin/xtb /home/xchen/Test/benchmark/md_sampled/06_7_0793_0/snap_0139.xyz --charge 0 --gxtb --norestart
          coordinate file            : /home/xchen/Test/benchmark/md_sampled/06_7_0793_0/snap_0139.xyz
          omp threads                :                    48

core increment energy         -2.3123015384480E+03 Eh
dispersion energy              2.1367925826439E-02 Eh
molecular charge               0.0000000000000E+00 e
number of electrons            2.4799999999781E+02 e
number of unpaired electrons   0.0000000000000E+00 e
wavefunction                   restricted
integral cutoff                2.6907767250513E+01 bohr
energy convergence             1.0000000000000E-06 Eh
density convergence            2.0000000000000E-05 e

------------------------------------------------------------
  cycle        total energy    energy error   density error
------------------------------------------------------------
      1     -2513.346296935  -2.0106613E+02   0.0000000E+00
      2     -2513.743970818  -3.9767388E-01   2.1595516E-02
      3     -2513.995663721  -2.5169290E-01   1.6975034E-02
      4     -2514.515492731  -5.1982901E-01   1.3412727E-02
      5     -2514.524344838  -8.8521070E-03   1.1053937E-03
      6     -2514.524908899  -5.6406131E-04   2.0686807E-04
      7     -2514.524964338  -5.5438761E-05   6.3026680E-05
      8     -2514.524968822  -4.4842633E-06   1.6517747E-05
      9     -2514.524969534  -7.1217556E-07   4.3662254E-06
------------------------------------------------------------

electronic energy             -2.0224479901201E+02 Eh
total energy                  -2.5145249695342E+03 Eh

Post processing:
 | Mayer-Wiberg bond orders
 | Molecular Multipole Moments

 total:                                  13.917 sec
 - increment                              0.000 sec (  0%)
 - repulsion                              0.009 sec (  0%)
 - dispersion                             0.356 sec (  2%)
 - coulomb                                0.151 sec (  1%)
 - exchange                               0.007 sec (  0%)
 - hamiltonian                            0.527 sec (  3%)
 - acp                                    0.258 sec (  1%)
 - spin polarization                      0.000 sec (  0%)
 - post processing                        0.116 sec (  0%)
 - scc                                   11.233 sec ( 80%)
 - coulomb gradient                       0.224 sec (  1%)
 - dispersion gradient                    0.122 sec (  0%)
 - exchange gradient                      0.152 sec (  1%)
 - repulsion gradient                     0.017 sec (  0%)
 - acp gradient                           0.227 sec (  1%)
 - hamiltonian gradient                   0.628 sec (  4%)
 - gradient                               1.370 sec (  9%)

         :::::::::::::::::::::::::::::::::::::::::::::::::::::
         ::                     SUMMARY                     ::
         :::::::::::::::::::::::::::::::::::::::::::::::::::::
         :: total energy           -2514.524969534182 Eh    ::
         :: gradient norm              0.353543170776 Eh/a0 ::
         :: HOMO-LUMO gap              8.422819463047 eV    ::
         ::.................................................::
         :: add. restraining           0.000000000000 Eh    ::
         :: total charge              -0.000000000000 e     ::
         :::::::::::::::::::::::::::::::::::::::::::::::::::::

           -------------------------------------------------
          |                Property Printout                |
           -------------------------------------------------

    * Orbital Energies and Occupations
------------------------------------------------------------------
      #    Occupation            Energy/Eh            Energy/eV
------------------------------------------------------------------
      1        2.0000           -1.3554097             -36.8826
    ...           ...                  ...                  ...
    112        2.0000           -0.3946284             -10.7384
    113        2.0000           -0.3937923             -10.7156
    114        2.0000           -0.3927713             -10.6879
    115        2.0000           -0.3843905             -10.4598
    116        2.0000           -0.3830857             -10.4243
    117        2.0000           -0.3818597             -10.3909
    118        2.0000           -0.3705480             -10.0831
    119        2.0000           -0.3675319             -10.0011
    120        2.0000           -0.3636734              -9.8961
    121        2.0000           -0.3610740              -9.8253
    122        2.0000           -0.3598381              -9.7917
    123        2.0000           -0.3579747              -9.7410
    124        2.0000           -0.3437137              -9.3529 (HOMO)
    125                         -0.0341808              -0.9301 (LUMO)
    126                         -0.0116537              -0.3171
    127                         -0.0010325              -0.0281
    128                          0.0104994               0.2857
    129                          0.0188259               0.5123
    130                          0.0290013               0.7892
    131                          0.0306181               0.8332
    132                          0.0459654               1.2508
    133                          0.0554398               1.5086
    134                          0.1187752               3.2320
    135                          0.1230255               3.3477
    ...                                ...                  ...
    226                          0.7079425              19.2641
------------------------------------------------------------------
               HL-Gap            0.3095329 Eh            8.4228 eV
------------------------------------------------------------------

Atomic charges and shell populations (in atomic units):
-----------------------------------------------------------------
     #    Z                q          p(s)       p(p)       p(d)
-----------------------------------------------------------------
     1    7 N      -0.270772      1.375462   3.895310
     2    6 C       0.004117      1.127970   2.867914
     3    6 C       0.414311      1.108612   2.477077
     4    8 O      -0.537476      1.858307   4.679169
     5    7 N      -0.342701      1.376639   3.966062
     6    6 C       0.000478      1.111679   2.887844
     7    6 C      -0.057306      1.137203   2.920103
     8    6 C       0.411493      1.110132   2.478375
     9    6 C      -0.174242      1.127441   3.046801
    10    6 C       0.014860      1.102945   2.882195
    11    8 O      -0.552977      1.856174   4.696803
    12    6 C      -0.147837      1.152546   2.995291
    13    7 N      -0.353851      1.363383   3.990468
    14    6 C      -0.130998      1.197547   2.933451
    15    6 C       0.423206      1.122275   2.454519
    16   16 S      -0.260012      1.897719   4.313369   0.048924
    17    6 C      -0.086882      1.142161   2.944721
    18    8 O      -0.487435      1.860341   4.627095
    19    7 N      -0.337089      1.353042   3.984047
    20    6 C       0.410864      1.102095   2.487041
    21    6 C       0.021291      1.120159   2.858550
    22    8 O      -0.532995      1.859349   4.673646
    23    7 N      -0.329785      1.356840   3.972945
    24    6 C      -0.256701      1.150368   3.106333
    25    6 C       0.416105      1.094949   2.488945
    26    6 C      -0.000239      1.107434   2.892805
    27    8 O      -0.562208      1.855575   4.706633
    28    7 N      -0.332403      1.356424   3.975980
    29    6 C       0.106791      1.137698   2.755511
    30    6 C       0.409036      1.098799   2.492164
    31    8 O      -0.596554      1.804694   4.791861
    32    6 C      -0.240947      1.164257   3.076690
    33    6 C       0.000570      1.129412   2.870018
    34    8 O      -0.539440      1.853774   4.685667
    35    7 N      -0.337724      1.383252   3.954471
    36    6 C       0.096296      1.130052   2.773652
    37    6 C       0.431407      1.124184   2.444409
    38    8 O      -0.582713      1.795530   4.787182
    39    6 C      -0.257622      1.182299   3.075323
    40    8 O      -0.560701      1.861080   4.699621
    41    6 C      -0.108841      1.129464   2.979377
    42    6 C      -0.266922      1.168524   3.098398
    43    6 C      -0.199120      1.141306   3.057814
    44    6 C      -0.251316      1.164070   3.087246
    45    1 H       0.140941      0.859059
    46    1 H       0.290256      0.709744
    47    1 H       0.147831      0.852169
    48    1 H       0.107898      0.892102
    49    1 H       0.086408      0.913592
    50    1 H       0.113903      0.886097
    51    1 H       0.102220      0.897780
    52    1 H       0.136659      0.863341
    53    1 H       0.113684      0.886316
    54    1 H       0.100394      0.899606
    55    1 H       0.270582      0.729418
    56    1 H       0.131455      0.868545
    57    1 H       0.094507      0.905493
    58    1 H       0.187357      0.812643
    59    1 H       0.121635      0.878365
    60    1 H       0.139224      0.860776
    61    1 H       0.269709      0.730291
    62    1 H       0.117618      0.882382
    63    1 H       0.279321      0.720679
    64    1 H       0.128217      0.871783
    65    1 H       0.081931      0.918069
    66    1 H       0.113210      0.886790
    67    1 H       0.158057      0.841943
    68    1 H       0.287427      0.712573
    69    1 H       0.106960      0.893040
    70    1 H       0.355495      0.644505
    71    1 H       0.075508      0.924492
    72    1 H       0.108404      0.891596
    73    1 H       0.111445      0.888555
    74    1 H       0.125046      0.874954
    75    1 H       0.267753      0.732247
    76    1 H       0.107017      0.892983
    77    1 H       0.368039      0.631961
    78    1 H       0.097825      0.902175
    79    1 H       0.097530      0.902470
    80    1 H       0.104448      0.895552
    81    1 H       0.106551      0.893449
    82    1 H       0.116346      0.883654
    83    1 H       0.090625      0.909375
    84    1 H       0.106026      0.893974
    85    1 H       0.104568      0.895432
    86    1 H       0.105220      0.894780
    87    1 H       0.096884      0.903116
    88    1 H       0.082659      0.917341
    89    1 H       0.080188      0.919812
-----------------------------------------------------------------


Wiberg/Mayer (AO) data.
largest (>0.10) Wiberg bond orders for each atom

 ---------------------------------------------------------------------------
     #   Z sym  total        # sym  WBO       # sym  WBO       # sym  WBO
 ---------------------------------------------------------------------------
     1   7 N    3.364 --     8 C    1.197     2 C    0.958     7 C    0.935
                            11 C    0.153
     2   6 C    3.925 --    12 C    0.975     1 N    0.958    45 N    0.936
                             3 C    0.910
     3   6 C    3.870 --     4 C    1.649     5 N    1.232     2 C    0.910
     4   8 C    1.931 --     3 C    1.649     5 N    0.154
     5   7 N    3.304 --     3 C    1.232     6 C    0.959    46 N    0.861
                             4 C    0.154
     6   6 C    3.941 --    41 C    0.966    37 C    0.960     5 N    0.959
                            47 N    0.926
     7   6 C    3.921 --     9 C    1.027    49 N    0.949    48 N    0.947
                             1 N    0.935
     8   6 C    3.868 --    11 C    1.632     1 N    1.197    10 C    0.932
     9   6 C    3.967 --     7 C    1.027    12 C    1.002    51 N    0.953
                            50 N    0.950
    10   6 C    3.946 --    13 N    0.985    14 C    0.970    52 N    0.932
                             8 C    0.932
    11   8 C    1.923 --     8 C    1.632     1 N    0.153
    12   6 C    3.956 --     9 C    1.002     2 C    0.975    53 N    0.955
                            54 N    0.951
    13   7 N    3.283 --    15 C    1.148    10 C    0.985    55 N    0.883
                            18 C    0.161
    14   6 C    3.926 --    16 O    0.986    10 C    0.970    56 N    0.953
                            57 N    0.951
    15   6 C    3.857 --    18 C    1.732    13 N    1.148    17 C    0.908
    16  16 O    2.006 --    14 C    0.986    58 N    0.956
    17   6 C    3.915 --    19 N    0.987    59 N    0.956    60 N    0.947
                            15 C    0.908
    18   8 C    2.000 --    15 C    1.732    13 N    0.161
    19   7 N    3.331 --    20 C    1.204    17 C    0.987    61 N    0.897
                            22 C    0.164
    20   6 C    3.872 --    22 C    1.651    19 N    1.204    21 C    0.946
    21   6 C    3.937 --    24 C    1.003    23 N    0.947    20 C    0.946
                            62 N    0.927
    22   8 C    1.938 --    20 C    1.651    19 N    0.164
    23   7 N    3.342 --    25 C    1.253    21 C    0.947    63 N    0.887
                            27 C    0.169
    24   6 C    3.947 --    21 C    1.003    65 N    0.970    66 N    0.966
                            64 N    0.964
    25   6 C    3.880 --    27 C    1.617    23 N    1.253    26 C    0.937
    26   6 C    3.933 --    28 N    0.984    29 C    0.955    25 C    0.937
                            67 N    0.922
    27   8 C    1.904 --    25 C    1.617    23 N    0.169
    28   7 N    3.353 --    30 C    1.247    26 C    0.984    68 N    0.860
                            34 C    0.167
    29   6 C    3.891 --    32 C    1.008    26 C    0.955    69 N    0.948
                            31 C    0.911
    30   6 C    3.882 --    34 C    1.647    28 N    1.247    33 C    0.912
    31   8 C    1.829 --    29 C    0.911    70 N    0.844
    32   6 C    3.957 --    29 C    1.008    71 N    0.970    73 N    0.969
                            72 N    0.968
    33   6 C    3.936 --    35 N    0.968    36 C    0.966    74 N    0.935
                            30 C    0.912
    34   8 C    1.935 --    30 C    1.647    28 N    0.167
    35   7 N    3.290 --    37 C    1.189    33 C    0.968    75 N    0.897
                            40 C    0.144
    36   6 C    3.890 --    39 C    0.976    33 C    0.966    76 N    0.954
                            38 C    0.941
    37   6 C    3.847 --    40 C    1.619    35 N    1.189     6 C    0.960
    38   8 C    1.891 --    36 C    0.941    77 N    0.821
    39   6 C    3.951 --    79 N    0.977    36 C    0.976    78 N    0.974
                            80 N    0.972
    40   8 C    1.926 --    37 C    1.619    35 N    0.144
    41   6 C    3.972 --    42 C    1.002    43 C    0.989     6 C    0.966
                            81 N    0.942
    42   6 C    3.954 --    41 C    1.002    82 N    0.970    84 N    0.969
                            83 N    0.968
    43   6 C    3.968 --    44 C    1.025    41 C    0.989    86 N    0.955
                            85 N    0.953
    44   6 C    3.961 --    43 C    1.025    87 N    0.973    88 N    0.972
                            89 N    0.969
    45   1 N    0.980 --     2 C    0.936
    46   1 N    0.916 --     5 N    0.861
    47   1 N    0.978 --     6 C    0.926
    48   1 N    0.988 --     7 C    0.947
    49   1 N    0.993 --     7 C    0.949
    50   1 N    0.987 --     9 C    0.950
    51   1 N    0.990 --     9 C    0.953
    52   1 N    0.981 --    10 C    0.932
    53   1 N    0.987 --    12 C    0.955
    54   1 N    0.990 --    12 C    0.951
    55   1 N    0.927 --    13 N    0.883
    56   1 N    0.983 --    14 C    0.953
    57   1 N    0.991 --    14 C    0.951
    58   1 N    0.965 --    16 O    0.956
    59   1 N    0.985 --    17 C    0.956
    60   1 N    0.981 --    17 C    0.947
    61   1 N    0.927 --    19 N    0.897
    62   1 N    0.986 --    21 C    0.927
    63   1 N    0.922 --    23 N    0.887
    64   1 N    0.984 --    24 C    0.964
    65   1 N    0.993 --    24 C    0.970
    66   1 N    0.987 --    24 C    0.966
    67   1 N    0.975 --    26 C    0.922
    68   1 N    0.917 --    28 N    0.860
    69   1 N    0.989 --    29 C    0.948
    70   1 N    0.874 --    31 C    0.844
    71   1 N    0.994 --    32 C    0.970
    72   1 N    0.988 --    32 C    0.968
    73   1 N    0.988 --    32 C    0.969
    74   1 N    0.984 --    33 C    0.935
    75   1 N    0.928 --    35 N    0.897
    76   1 N    0.989 --    36 C    0.954
    77   1 N    0.865 --    38 C    0.821
    78   1 N    0.990 --    39 C    0.974
    79   1 N    0.990 --    39 C    0.977
    80   1 N    0.989 --    39 C    0.972
    81   1 N    0.989 --    41 C    0.942
    82   1 N    0.986 --    42 C    0.970
    83   1 N    0.992 --    42 C    0.968
    84   1 N    0.989 --    42 C    0.969
    85   1 N    0.989 --    43 C    0.953
    86   1 N    0.989 --    43 C    0.955
    87   1 N    0.991 --    44 C    0.973
    88   1 N    0.993 --    44 C    0.972
    89   1 N    0.994 --    44 C    0.969
 ---------------------------------------------------------------------------

Topologies differ in total number of bonds
Writing topology from bond orders to xtbtopo.mol

Atomic dipole moments (in atomic units):
---------------------------------------------------------
     #    Z                 x            y            z
---------------------------------------------------------
           total     2.988367    -0.584834     1.181903
---------------------------------------------------------
         |total|     3.266384     8.302320 Debye


           -------------------------------------------------
          | TOTAL ENERGY            -2514.524969534182 Eh   |
          | GRADIENT NORM               0.353543170776 Eh/α |
           -------------------------------------------------

------------------------------------------------------------------------
 * finished run on 2026/05/23 at 12:43:41.087     
------------------------------------------------------------------------
 total:
 * wall-time:     0 d,  0 h,  0 min, 14.680 sec
 *  cpu-time:     0 d,  0 h,  0 min, 26.529 sec
 * ratio c/w:     1.807 speedup
 SCF:
 * wall-time:     0 d,  0 h,  0 min, 14.310 sec
 *  cpu-time:     0 d,  0 h,  0 min, 26.254 sec
 * ratio c/w:     1.835 speedup

normal termination of xtb
