      -----------------------------------------------------------      
     |                   =====================                   |     
     |                           x T B                           |     
     |                   =====================                   |     
     |                         S. Grimme                         |     
     |          Mulliken Center for Theoretical Chemistry        |     
     |                    University of Bonn                     |     
      -----------------------------------------------------------      

   * xtb version 6.7.1 (26dd68d) compiled by 'froitzheim@fs7' on 2026-05-14

   xtb is free software: you can redistribute it and/or modify it under
   the terms of the GNU Lesser General Public License as published by
   the Free Software Foundation, either version 3 of the License, or
   (at your option) any later version.
   
   xtb is distributed in the hope that it will be useful,
   but WITHOUT ANY WARRANTY; without even the implied warranty of
   MERCHANTABILITY or FITNESS FOR A PARTICULAR PURPOSE.  See the
   GNU Lesser General Public License for more details.
   
   Cite this work as:
   * C. Bannwarth, E. Caldeweyher, S. Ehlert, A. Hansen, P. Pracht,
     J. Seibert, S. Spicher, S. Grimme, WIREs Comput. Mol. Sci., 2020, 11,
     e01493. DOI: 10.1002/wcms.1493
   
   for g-xTB:
   * T. Froitzheim, M. Müller, A. Hansen, S. Grimme, ChemRxiv, 2025, preprint.
     DOI: 10.26434/chemrxiv-2025-bjxv
   for GFN2-xTB:
   * C. Bannwarth, S. Ehlert and S. Grimme., J. Chem. Theory Comput., 2019,
     15, 1652-1671. DOI: 10.1021/acs.jctc.8b01176
   for GFN1-xTB:
   * S. Grimme, C. Bannwarth, P. Shushkov, J. Chem. Theory Comput., 2017,
     13, 1989-2009. DOI: 10.1021/acs.jctc.7b00118
   for GFN0-xTB:
   * P. Pracht, E. Caldeweyher, S. Ehlert, S. Grimme, ChemRxiv, 2019, preprint.
     DOI: 10.26434/chemrxiv.8326202.v1
   for GFN-FF:
   * S. Spicher and S. Grimme, Angew. Chem. Int. Ed., 2020, 59, 15665-15673.
     DOI: 10.1002/anie.202004239
   
   for ALPB and GBSA implicit solvation:
   * S. Ehlert, M. Stahn, S. Spicher, S. Grimme, J. Chem. Theory Comput.,
     2021, 17, 4250-4261. DOI: 10.1021/acs.jctc.1c00471
   
   for ddCOSMO and CPCM-X implicit solvation:
   * M. Stahn, S. Ehlert, S. Grimme, J. Phys. Chem. A,
     2023, XX, XXXX-XXXX. DOI: 10.1021/acs.jpca.3c04382
   
   for DFT-D4:
   * E. Caldeweyher, C. Bannwarth and S. Grimme, J. Chem. Phys., 2017,
     147, 034112. DOI: 10.1063/1.4993215
   * E. Caldeweyher, S. Ehlert, A. Hansen, H. Neugebauer, S. Spicher,
     C. Bannwarth and S. Grimme, J. Chem. Phys., 2019, 150, 154122.
     DOI: 10.1063/1.5090222
   * E. Caldeweyher, J.-M. Mewes, S. Ehlert and S. Grimme, Phys. Chem. Chem. Phys.
     2020, 22, 8499-8512. DOI: 10.1039/D0CP00502A
   
   for sTDA-xTB:
   * S. Grimme and C. Bannwarth, J. Chem. Phys., 2016, 145, 054103.
     DOI: 10.1063/1.4959605
   
   in the mass-spec context:
   * V. Asgeirsson, C. Bauer and S. Grimme, Chem. Sci., 2017, 8, 4879.
     DOI: 10.1039/c7sc00601b
   * J. Koopman and S. Grimme, ACS Omega 2019, 4, 12, 15120-15133.
     DOI: 10.1021/acsomega.9b02011
   
   for metadynamics refer to:
   * S. Grimme, J. Chem. Theory Comput., 2019, 155, 2847-2862
     DOI: 10.1021/acs.jctc.9b00143
   
   for SPH calculations refer to:
   * S. Spicher and S. Grimme, J. Chem. Theory Comput., 2021, 17, 1701-1714
     DOI: 10.1021/acs.jctc.0c01306
   
   for ONIOM refer to:
   * C. Plett, A. Katbashev, S. Ehlert, S. Grimme, M. Bursch,
     Phys. Chem. Chem. Phys., 2023, 25, 17860-17868. DOI: 10.1039/D3CP02178E
   
   for DIPRO refer to:
   * J. Kohn, N. Gildemeister, S. Grimme, D. Fazzi, A. Hansen,
     J. Chem. Phys. 159, 144106 (2023). DOI: 10.1063/5.0167484
   
   for PTB refer to:
   * S. Grimme, M. Mueller, A. Hansen, J. Chem. Phys., 2023, 158, 124111.
     DOI: 10.1063/5.0137838
   
   with help from (in alphabetical order)
   P. Atkinson, C. Bannwarth, F. Bohle, G. Brandenburg, E. Caldeweyher,
   M. Checinski, S. Dohm, S. Ehlert, S. Ehrlich, M. Friede, T. Froitzheim,
   I. Gerasimov, C. Hölzer, A. Katbashev, J. Kohn, J. Koopman, C. Lavigne,
   S. Lehtola, F. März, M. Müller, F. Musil, H. Neugebauer, J. Pisarek,
   C. Plett, P. Pracht, F. Pultar, J. Seibert, P. Shushkov, S. Spicher,
   M. Stahn, M. Steiner, T. Strunk, J. Stückrath, T. Rose, and J. Unsleber
   
 * started run on 2026/05/23 at 12:58:56.908     
   ID    Z sym.   atoms
    1    7 N      1, 5, 10, 17, 27, 34, 39, 43, 54, 56, 57
    2    6 C      2, 3, 6-8, 11-14, 16, 18, 21-23, 28-31, 33, 35-38, 40,
                  44-48, 50-53, 55, 58
    3    8 O      4, 9, 15, 19, 20, 24-26, 32, 41, 49
    4   16 S      42
    5    1 H      59-117

           -------------------------------------------------
          |                Calculation Setup                |
           -------------------------------------------------

          program call               : /home/xchen/software/xtb-6.7.1-gxtb/bin/xtb /home/xchen/Test/benchmark/md_sampled/04_7_0231_n2/snap_0152.xyz --charge -2 --gxtb --norestart
          coordinate file            : /home/xchen/Test/benchmark/md_sampled/04_7_0231_n2/snap_0152.xyz
          omp threads                :                    48

core increment energy         -2.9312527735450E+03 Eh
dispersion energy              2.3099043291596E-02 Eh
molecular charge              -2.0000000000000E+00 e
number of electrons            3.2799999999710E+02 e
number of unpaired electrons   0.0000000000000E+00 e
wavefunction                   restricted
integral cutoff                2.6907767250513E+01 bohr
energy convergence             1.0000000000000E-06 Eh
density convergence            2.0000000000000E-05 e

------------------------------------------------------------
  cycle        total energy    energy error   density error
------------------------------------------------------------
      1     -3195.843503140  -2.6461383E+02   0.0000000E+00
      2     -3196.338335373  -4.9483223E-01   2.0388313E-02
      3     -3196.655322490  -3.1698712E-01   1.6025788E-02
      4     -3197.325189920  -6.6986743E-01   1.2650654E-02
      5     -3197.335098341  -9.9084214E-03   8.4925495E-04
      6     -3197.335951552  -8.5321109E-04   1.7586987E-04
      7     -3197.336025673  -7.4120448E-05   5.1917625E-05
      8     -3197.336031663  -5.9904694E-06   1.6081530E-05
      9     -3197.336032437  -7.7430815E-07   2.6412003E-06
------------------------------------------------------------

electronic energy             -2.6610635793566E+02 Eh
total energy                  -3.1973360324374E+03 Eh

Post processing:
 | Mayer-Wiberg bond orders
 | Molecular Multipole Moments

 total:                                  15.798 sec
 - increment                              0.000 sec (  0%)
 - repulsion                              0.010 sec (  0%)
 - dispersion                             0.383 sec (  2%)
 - coulomb                                0.203 sec (  1%)
 - exchange                               0.004 sec (  0%)
 - hamiltonian                            0.372 sec (  2%)
 - acp                                    0.405 sec (  2%)
 - spin polarization                      0.000 sec (  0%)
 - post processing                        0.218 sec (  1%)
 - scc                                   13.014 sec ( 82%)
 - coulomb gradient                       0.188 sec (  1%)
 - dispersion gradient                    0.033 sec (  0%)
 - exchange gradient                      0.203 sec (  1%)
 - repulsion gradient                     0.007 sec (  0%)
 - acp gradient                           0.403 sec (  2%)
 - hamiltonian gradient                   0.564 sec (  3%)
 - gradient                               1.399 sec (  8%)

         :::::::::::::::::::::::::::::::::::::::::::::::::::::
         ::                     SUMMARY                     ::
         :::::::::::::::::::::::::::::::::::::::::::::::::::::
         :: total energy           -3197.336032437374 Eh    ::
         :: gradient norm              0.429301588313 Eh/a0 ::
         :: HOMO-LUMO gap              6.038171050124 eV    ::
         ::.................................................::
         :: add. restraining           0.000000000000 Eh    ::
         :: total charge              -2.000000000000 e     ::
         :::::::::::::::::::::::::::::::::::::::::::::::::::::

           -------------------------------------------------
          |                Property Printout                |
           -------------------------------------------------

    * Orbital Energies and Occupations
------------------------------------------------------------------
      #    Occupation            Energy/Eh            Energy/eV
------------------------------------------------------------------
      1        2.0000           -1.1987719             -32.6202
    ...           ...                  ...                  ...
    152        2.0000           -0.2125246              -5.7831
    153        2.0000           -0.2105064              -5.7282
    154        2.0000           -0.2068600              -5.6289
    155        2.0000           -0.2062208              -5.6116
    156        2.0000           -0.1975466              -5.3755
    157        2.0000           -0.1882954              -5.1238
    158        2.0000           -0.1855369              -5.0487
    159        2.0000           -0.1779159              -4.8413
    160        2.0000           -0.1652190              -4.4958
    161        2.0000           -0.1588707              -4.3231
    162        2.0000           -0.1170223              -3.1843
    163        2.0000           -0.1052600              -2.8643
    164        2.0000           -0.0951089              -2.5880 (HOMO)
    165                          0.1267898               3.4501 (LUMO)
    166                          0.1416503               3.8545
    167                          0.1487984               4.0490
    168                          0.1580468               4.3007
    169                          0.1631799               4.4404
    170                          0.1801306               4.9016
    171                          0.1822861               4.9603
    172                          0.1929612               5.2507
    173                          0.2068565               5.6289
    174                          0.2116736               5.7599
    175                          0.2229306               6.0663
    ...                                ...                  ...
    296                          0.9510795              25.8802
------------------------------------------------------------------
               HL-Gap            0.2218987 Eh            6.0382 eV
------------------------------------------------------------------

Atomic charges and shell populations (in atomic units):
-----------------------------------------------------------------
     #    Z                q          p(s)       p(p)       p(d)
-----------------------------------------------------------------
     1    7 N      -0.372572      1.364097   4.008475
     2    6 C       0.029818      1.102254   2.867929
     3    6 C       0.435146      1.088273   2.476582
     4    8 O      -0.588029      1.853894   4.734135
     5    7 N      -0.324389      1.352604   3.971785
     6    6 C      -0.003586      1.140734   2.862852
     7    6 C       0.420217      1.110597   2.469186
     8    6 C      -0.021677      1.122145   2.899532
     9    8 O      -0.513494      1.852029   4.661465
    10    7 N      -0.307188      1.356443   3.950746
    11    6 C      -0.181126      1.149323   3.031803
    12    6 C       0.429952      1.104270   2.465778
    13    6 C      -0.194133      1.145219   3.048914
    14    6 C      -0.026658      1.115087   2.911571
    15    8 O      -0.621049      1.855914   4.765135
    16    6 C       0.520200      1.072762   2.407038
    17    7 N      -0.515936      1.570696   3.945240
    18    6 C      -0.176500      1.155060   3.021440
    19    8 O      -0.694252      1.855088   4.839164
    20    8 O      -0.721661      1.861676   4.859985
    21    6 C       0.371249      1.098432   2.530319
    22    6 C       0.530993      1.073846   2.395161
    23    6 C      -0.002503      1.139118   2.863385
    24    8 O      -0.686830      1.859793   4.827036
    25    8 O      -0.537124      1.843399   4.693725
    26    8 O      -0.535403      1.798782   4.736621
    27    7 N      -0.368375      1.374634   3.993741
    28    6 C      -0.169512      1.154975   3.014537
    29    6 C       0.412789      1.098450   2.488761
    30    6 C      -0.184871      1.141913   3.042957
    31    6 C       0.000625      1.142149   2.857227
    32    8 O      -0.531837      1.852871   4.678966
    33    6 C      -0.193897      1.169679   3.024218
    34    7 N      -0.311986      1.371873   3.940113
    35    6 C      -0.172588      1.152275   3.020314
    36    6 C      -0.098573      1.136445   2.962128
    37    6 C       0.414247      1.097341   2.488412
    38    6 C      -0.114512      1.153419   2.961093
    39    7 N      -0.553537      1.336740   4.216797
    40    6 C      -0.005110      1.130464   2.874647
    41    8 O      -0.576318      1.859654   4.716664
    42   16 S      -0.226690      1.863712   4.278364   0.084615
    43    7 N      -0.342612      1.344670   3.997942
    44    6 C      -0.087881      1.140476   2.947405
    45    6 C      -0.211579      1.193623   3.017956
    46    6 C       0.400614      1.111819   2.487567
    47    6 C      -0.271949      1.166154   3.105795
    48    6 C      -0.197358      1.154909   3.042449
    49    8 O      -0.526364      1.856161   4.670203
    50    6 C      -0.297258      1.186200   3.111058
    51    6 C      -0.181869      1.167404   3.014464
    52    6 C      -0.201874      1.166611   3.035264
    53    6 C      -0.070512      1.139262   2.931250
    54    7 N      -0.396469      1.410752   3.985717
    55    6 C       0.281531      1.097987   2.620482
    56    7 N      -0.514012      1.561528   3.952485
    57    7 N      -0.464671      1.459906   4.004765
    58    6 C      -0.273111      1.169533   3.103578
    59    1 H       0.298265      0.701735
    60    1 H       0.098409      0.901591
    61    1 H       0.280995      0.719005
    62    1 H       0.148655      0.851345
    63    1 H       0.126842      0.873158
    64    1 H       0.282448      0.717552
    65    1 H       0.098866      0.901134
    66    1 H       0.096892      0.903108
    67    1 H       0.117280      0.882720
    68    1 H       0.070610      0.929390
    69    1 H       0.123013      0.876987
    70    1 H       0.389548      0.610452
    71    1 H       0.123719      0.876281
    72    1 H       0.107159      0.892841
    73    1 H       0.120679      0.879321
    74    1 H       0.279925      0.720075
    75    1 H       0.092303      0.907697
    76    1 H       0.098483      0.901517
    77    1 H       0.096538      0.903462
    78    1 H       0.100784      0.899216
    79    1 H       0.116721      0.883279
    80    1 H       0.125779      0.874221
    81    1 H       0.068181      0.931819
    82    1 H       0.274841      0.725159
    83    1 H       0.121370      0.878630
    84    1 H       0.122537      0.877463
    85    1 H       0.096685      0.903315
    86    1 H       0.072317      0.927683
    87    1 H       0.102227      0.897773
    88    1 H       0.099810      0.900190
    89    1 H       0.268504      0.731496
    90    1 H       0.208565      0.791435
    91    1 H       0.127205      0.872795
    92    1 H       0.265905      0.734095
    93    1 H       0.108662      0.891338
    94    1 H       0.128685      0.871315
    95    1 H       0.114441      0.885559
    96    1 H       0.096148      0.903852
    97    1 H       0.086477      0.913523
    98    1 H       0.091730      0.908270
    99    1 H       0.089678      0.910322
   100    1 H       0.116367      0.883633
   101    1 H       0.120638      0.879362
   102    1 H       0.084644      0.915356
   103    1 H       0.099264      0.900736
   104    1 H       0.091862      0.908138
   105    1 H       0.118787      0.881213
   106    1 H       0.096917      0.903083
   107    1 H       0.105823      0.894177
   108    1 H       0.115313      0.884687
   109    1 H       0.084385      0.915615
   110    1 H       0.085948      0.914052
   111    1 H       0.257493      0.742507
   112    1 H       0.222441      0.777559
   113    1 H       0.232686      0.767314
   114    1 H       0.237617      0.762383
   115    1 H       0.138850      0.861150
   116    1 H       0.071930      0.928070
   117    1 H       0.103213      0.896787
-----------------------------------------------------------------


Wiberg/Mayer (AO) data.
largest (>0.10) Wiberg bond orders for each atom

 ---------------------------------------------------------------------------
     #   Z sym  total        # sym  WBO       # sym  WBO       # sym  WBO
 ---------------------------------------------------------------------------
     1   7 N    3.297 --     7 C    1.183     2 C    0.994    59 N    0.838
                             9 C    0.162
     2   6 C    3.959 --     1 N    0.994    51 C    0.973     3 C    0.967
                            60 N    0.920
     3   6 C    3.875 --     4 C    1.604     5 N    1.224     2 C    0.967
     4   8 C    1.880 --     3 C    1.604     5 N    0.149
     5   7 N    3.313 --     3 C    1.224     6 C    0.967    61 N    0.883
                             4 C    0.149
     6   6 C    3.930 --    58 C    1.007     5 N    0.967    62 N    0.924
                            46 C    0.892
     7   6 C    3.856 --     9 C    1.677     1 N    1.183     8 C    0.918
     8   6 C    3.925 --    10 N    0.970    11 C    0.968    63 N    0.931
                             7 C    0.918
     9   8 C    1.987 --     7 C    1.677     1 N    0.162
    10   7 N    3.353 --    12 C    1.253     8 C    0.970    64 N    0.873
                            15 C    0.150
    11   6 C    3.951 --    13 C    1.028     8 C    0.968    66 N    0.949
                            65 N    0.934
    12   6 C    3.863 --    15 C    1.531    10 N    1.253    14 C    0.986
    13   6 C    3.957 --    11 C    1.028    68 N    0.957    67 N    0.939
                            16 C    0.907
    14   6 C    3.961 --    12 C    0.986    18 C    0.984    17 N    0.959
                            69 N    0.929
    15   8 C    1.852 --    12 C    1.531    10 N    0.150
    16   6 C    3.867 --    19 C    1.491    20 C    1.445    13 C    0.907
    17   7 N    2.972 --    21 C    1.488    14 C    0.959    24 C    0.180
                            70 N    0.178
    18   6 C    3.962 --    14 C    0.984    72 N    0.954    71 N    0.945
                            22 C    0.939
    19   8 C    1.768 --    16 C    1.491    20 C    0.195
    20   8 C    1.712 --    16 C    1.445    19 C    0.195
    21   6 C    3.907 --    17 N    1.488    24 C    1.427    23 C    0.928
    22   6 C    3.832 --    25 C    1.711    26 C    1.150    18 C    0.939
    23   6 C    3.915 --    27 N    0.961    28 C    0.960    73 N    0.944
                            21 C    0.928
    24   8 C    1.766 --    21 C    1.427    17 N    0.180
    25   8 C    1.967 --    22 C    1.711    26 C    0.157
    26   8 C    2.080 --    22 C    1.150    70 N    0.651    25 C    0.157
    27   7 N    3.323 --    29 C    1.225    23 C    0.961    74 N    0.868
                            32 C    0.173
    28   6 C    3.964 --    30 C    1.013    75 N    0.963    23 C    0.960
                            76 N    0.958
    29   6 C    3.880 --    32 C    1.663    27 N    1.225    31 C    0.929
    30   6 C    3.968 --    28 C    1.013    33 C    1.002    78 N    0.959
                            77 N    0.941
    31   6 C    3.921 --    35 C    0.988    79 N    0.936    29 C    0.929
                            34 N    0.927
    32   8 C    1.961 --    29 C    1.663    27 N    0.173
    33   6 C    3.958 --    30 C    1.002    36 C    0.997    81 N    0.961
                            80 N    0.936
    34   7 N    3.373 --    37 C    1.309    31 C    0.927    82 N    0.880
                            41 C    0.168
    35   6 C    3.950 --    38 C    1.009    31 C    0.988    84 N    0.944
                            83 N    0.939
    36   6 C    3.954 --    39 N    1.017    33 C    0.997    85 N    0.961
                            86 N    0.955
    37   6 C    3.882 --    41 C    1.578    34 N    1.309    40 C    0.919
    38   6 C    3.952 --    35 C    1.009    42 O    1.009    87 N    0.950
                            88 N    0.950
    39   7 N    2.922 --    36 C    1.017    90 N    0.933    89 N    0.908
    40   6 C    3.932 --    43 N    0.979    44 C    0.948    91 N    0.940
                            37 C    0.919
    41   8 C    1.877 --    37 C    1.578    34 N    0.168
    42  16 O    2.114 --    38 C    1.009    45 C    0.993
    43   7 N    3.340 --    46 C    1.231    40 C    0.979    92 N    0.867
                            49 C    0.159
    44   6 C    3.968 --    47 C    1.005    48 C    1.004    40 C    0.948
                            93 N    0.946
    45   6 C    3.922 --    42 O    0.993    96 N    0.967    94 N    0.963
                            95 N    0.963
    46   6 C    3.859 --    49 C    1.667    43 N    1.231     6 C    0.892
    47   6 C    3.957 --    44 C    1.005    99 N    0.972    97 N    0.970
                            98 N    0.968
    48   6 C    3.958 --    44 C    1.004    50 C    0.999   100 N    0.958
                           101 N    0.957
    49   8 C    1.953 --    46 C    1.667    43 N    0.159
    50   6 C    3.953 --    48 C    0.999   104 N    0.980   103 N    0.976
                           102 N    0.969
    51   6 C    3.957 --    52 C    0.996     2 C    0.973   105 N    0.958
                           106 N    0.957
    52   6 C    3.954 --    53 C    1.004    51 C    0.996   108 N    0.957
                           107 N    0.956
    53   6 C    3.935 --    52 C    1.004    54 N    0.987   110 N    0.955
                           109 N    0.946
    54   7 N    3.148 --    55 C    1.061    53 C    0.987   111 N    0.896
                            56 N    0.102
    55   6 C    3.940 --    56 N    1.783    57 N    1.067    54 N    1.061
    56   7 N    2.927 --    55 C    1.783   112 N    0.902    54 N    0.102
    57   7 N    3.061 --    55 C    1.067   114 N    0.925   113 N    0.923
    58   6 C    3.953 --     6 C    1.007   117 N    0.967   115 N    0.963
                           116 N    0.953
    59   1 N    0.911 --     1 N    0.838
    60   1 N    0.990 --     2 C    0.920
    61   1 N    0.921 --     5 N    0.883
    62   1 N    0.978 --     6 C    0.924
    63   1 N    0.984 --     8 C    0.931
    64   1 N    0.920 --    10 N    0.873
    65   1 N    0.990 --    11 C    0.934
    66   1 N    0.991 --    11 C    0.949
    67   1 N    0.986 --    13 C    0.939
    68   1 N    0.995 --    13 C    0.957
    69   1 N    0.985 --    14 C    0.929
    70   1 N    0.848 --    26 C    0.651    17 N    0.178
    71   1 N    0.985 --    18 C    0.945
    72   1 N    0.989 --    18 C    0.954
    73   1 N    0.985 --    23 C    0.944
    74   1 N    0.922 --    27 N    0.868
    75   1 N    0.991 --    28 C    0.963
    76   1 N    0.990 --    28 C    0.958
    77   1 N    0.991 --    30 C    0.941
    78   1 N    0.990 --    30 C    0.959
    79   1 N    0.986 --    31 C    0.936
    80   1 N    0.984 --    33 C    0.936
    81   1 N    0.995 --    33 C    0.961
    82   1 N    0.924 --    34 N    0.880
    83   1 N    0.985 --    35 C    0.939
    84   1 N    0.985 --    35 C    0.944
    85   1 N    0.991 --    36 C    0.961
    86   1 N    0.995 --    36 C    0.955
    87   1 N    0.990 --    38 C    0.950
    88   1 N    0.990 --    38 C    0.950
    89   1 N    0.928 --    39 N    0.908
    90   1 N    0.957 --    39 N    0.933
    91   1 N    0.984 --    40 C    0.940
    92   1 N    0.929 --    43 N    0.867
    93   1 N    0.988 --    44 C    0.946
    94   1 N    0.983 --    45 C    0.963
    95   1 N    0.987 --    45 C    0.963
    96   1 N    0.991 --    45 C    0.967
    97   1 N    0.993 --    47 C    0.970
    98   1 N    0.992 --    47 C    0.968
    99   1 N    0.992 --    47 C    0.972
   100   1 N    0.986 --    48 C    0.958
   101   1 N    0.985 --    48 C    0.957
   102   1 N    0.993 --    50 C    0.969
   103   1 N    0.990 --    50 C    0.976
   104   1 N    0.992 --    50 C    0.980
   105   1 N    0.986 --    51 C    0.958
   106   1 N    0.991 --    51 C    0.957
   107   1 N    0.989 --    52 C    0.956
   108   1 N    0.987 --    52 C    0.957
   109   1 N    0.993 --    53 C    0.946
   110   1 N    0.993 --    53 C    0.955
   111   1 N    0.934 --    54 N    0.896
   112   1 N    0.951 --    56 N    0.902
   113   1 N    0.946 --    57 N    0.923
   114   1 N    0.944 --    57 N    0.925
   115   1 N    0.981 --    58 C    0.963
   116   1 N    0.995 --    58 C    0.953
   117   1 N    0.989 --    58 C    0.967
 ---------------------------------------------------------------------------

Topologies differ in total number of bonds
Writing topology from bond orders to xtbtopo.mol

Atomic dipole moments (in atomic units):
---------------------------------------------------------
     #    Z                 x            y            z
---------------------------------------------------------
           total    -1.267736    13.560039     2.839257
---------------------------------------------------------
         |total|    13.911980    35.360726 Debye


           -------------------------------------------------
          | TOTAL ENERGY            -3197.336032437374 Eh   |
          | GRADIENT NORM               0.429301588313 Eh/α |
           -------------------------------------------------

------------------------------------------------------------------------
 * finished run on 2026/05/23 at 12:59:13.682     
------------------------------------------------------------------------
 total:
 * wall-time:     0 d,  0 h,  0 min, 16.773 sec
 *  cpu-time:     0 d,  0 h,  0 min, 30.117 sec
 * ratio c/w:     1.796 speedup
 SCF:
 * wall-time:     0 d,  0 h,  0 min, 16.325 sec
 *  cpu-time:     0 d,  0 h,  0 min, 29.649 sec
 * ratio c/w:     1.816 speedup

normal termination of xtb
