      -----------------------------------------------------------      
     |                   =====================                   |     
     |                           x T B                           |     
     |                   =====================                   |     
     |                         S. Grimme                         |     
     |          Mulliken Center for Theoretical Chemistry        |     
     |                    University of Bonn                     |     
      -----------------------------------------------------------      

   * xtb version 6.7.1 (edcfbbe) compiled by 'albert@albert-system' on 2024-07-22

   xtb is free software: you can redistribute it and/or modify it under
   the terms of the GNU Lesser General Public License as published by
   the Free Software Foundation, either version 3 of the License, or
   (at your option) any later version.
   
   xtb is distributed in the hope that it will be useful,
   but WITHOUT ANY WARRANTY; without even the implied warranty of
   MERCHANTABILITY or FITNESS FOR A PARTICULAR PURPOSE.  See the
   GNU Lesser General Public License for more details.
   
   Cite this work as:
   * C. Bannwarth, E. Caldeweyher, S. Ehlert, A. Hansen, P. Pracht,
     J. Seibert, S. Spicher, S. Grimme, WIREs Comput. Mol. Sci., 2020, 11,
     e01493. DOI: 10.1002/wcms.1493
   
   for GFN2-xTB:
   * C. Bannwarth, S. Ehlert and S. Grimme., J. Chem. Theory Comput., 2019,
     15, 1652-1671. DOI: 10.1021/acs.jctc.8b01176
   for GFN1-xTB:
   * S. Grimme, C. Bannwarth, P. Shushkov, J. Chem. Theory Comput., 2017,
     13, 1989-2009. DOI: 10.1021/acs.jctc.7b00118
   for GFN0-xTB:
   * P. Pracht, E. Caldeweyher, S. Ehlert, S. Grimme, ChemRxiv, 2019, preprint.
     DOI: 10.26434/chemrxiv.8326202.v1
   for GFN-FF:
   * S. Spicher and S. Grimme, Angew. Chem. Int. Ed., 2020, 59, 15665-15673.
     DOI: 10.1002/anie.202004239
   
   for ALPB and GBSA implicit solvation:
   * S. Ehlert, M. Stahn, S. Spicher, S. Grimme, J. Chem. Theory Comput.,
     2021, 17, 4250-4261. DOI: 10.1021/acs.jctc.1c00471
   
   for ddCOSMO and CPCM-X implicit solvation:
   * M. Stahn, S. Ehlert, S. Grimme, J. Phys. Chem. A,
     2023, XX, XXXX-XXXX. DOI: 10.1021/acs.jpca.3c04382
   
   for DFT-D4:
   * E. Caldeweyher, C. Bannwarth and S. Grimme, J. Chem. Phys., 2017,
     147, 034112. DOI: 10.1063/1.4993215
   * E. Caldeweyher, S. Ehlert, A. Hansen, H. Neugebauer, S. Spicher,
     C. Bannwarth and S. Grimme, J. Chem. Phys., 2019, 150, 154122.
     DOI: 10.1063/1.5090222
   * E. Caldeweyher, J.-M. Mewes, S. Ehlert and S. Grimme, Phys. Chem. Chem. Phys.
     2020, 22, 8499-8512. DOI: 10.1039/D0CP00502A
   
   for sTDA-xTB:
   * S. Grimme and C. Bannwarth, J. Chem. Phys., 2016, 145, 054103.
     DOI: 10.1063/1.4959605
   
   in the mass-spec context:
   * V. Asgeirsson, C. Bauer and S. Grimme, Chem. Sci., 2017, 8, 4879.
     DOI: 10.1039/c7sc00601b
   * J. Koopman and S. Grimme, ACS Omega 2019, 4, 12, 15120-15133.
     DOI: 10.1021/acsomega.9b02011
   
   for metadynamics refer to:
   * S. Grimme, J. Chem. Theory Comput., 2019, 155, 2847-2862
     DOI: 10.1021/acs.jctc.9b00143
   
   for SPH calculations refer to:
   * S. Spicher and S. Grimme, J. Chem. Theory Comput., 2021, 17, 1701-1714
     DOI: 10.1021/acs.jctc.0c01306
   
   for ONIOM refer to:
   * C. Plett, A. Katbashev, S. Ehlert, S. Grimme, M. Bursch,
     Phys. Chem. Chem. Phys., 2023, 25, 17860-17868. DOI: 10.1039/D3CP02178E
   
   for DIPRO refer to:
   * J. Kohn, N. Gildemeister, S. Grimme, D. Fazzi, A. Hansen,
     J. Chem. Phys., 2023, just accepted.
   
   for PTB refer to:
   * S. Grimme, M. Mueller, A. Hansen, J. Chem. Phys., 2023, 158, 124111.
     DOI: 10.1063/5.0137838
   
   with help from (in alphabetical order)
   P. Atkinson, C. Bannwarth, F. Bohle, G. Brandenburg, E. Caldeweyher
   M. Checinski, S. Dohm, S. Ehlert, S. Ehrlich, I. Gerasimov, C. Hölzer
   A. Katbashev, J. Kohn, J. Koopman, C. Lavigne, S. Lehtola, F. März, M. Müller,
   F. Musil, H. Neugebauer, J. Pisarek, C. Plett, P. Pracht, F. Pultar,
   J. Seibert, P. Shushkov, S. Spicher, M. Stahn, M. Steiner, T. Strunk,
   J. Stückrath, T. Rose, and J. Unsleber
   
 * started run on 2026/05/23 at 12:34:51.425     
   ID    Z sym.   atoms
    1    7 N      1, 5, 10, 17, 18, 25, 30, 33
    2    6 C      2, 3, 6-8, 11-14, 19-23, 26-28, 31, 32, 34, 36-39
    3    8 O      4, 9, 15, 16, 24, 29, 35
    4    1 H      40-77

           -------------------------------------------------
          |                Calculation Setup                |
           -------------------------------------------------

          program call               : /home/xchen/software/xtb-6.7.1/xtb-dist/bin/xtb /home/xchen/Test/benchmark/md_sampled/05_5_0513_0/snap_0098.xyz --charge 0 --gfn 2 --norestart
          coordinate file            : /home/xchen/Test/benchmark/md_sampled/05_5_0513_0/snap_0098.xyz
          omp threads                :                    48


           -------------------------------------------------
          |                 G F N 2 - x T B                 |
           -------------------------------------------------

        Reference                      10.1021/acs.jctc.8b01176
      * Hamiltonian:
        H0-scaling (s, p, d)           1.850000    2.230000    2.230000
        zeta-weighting                 0.500000
      * Dispersion:
        s8                             2.700000
        a1                             0.520000
        a2                             5.000000
        s9                             5.000000
      * Repulsion:
        kExp                           1.500000    1.000000
        rExp                           1.000000
      * Coulomb:
        alpha                          2.000000
        third order                    shell-resolved
        anisotropic                    true
        a3                             3.000000
        a5                             4.000000
        cn-shift                       1.200000
        cn-exp                         4.000000
        max-rad                        5.000000


          ...................................................
          :                      SETUP                      :
          :.................................................:
          :  # basis functions                 194          :
          :  # atomic orbitals                 194          :
          :  # shells                          116          :
          :  # electrons                       216          :
          :  max. iterations                   250          :
          :  Hamiltonian                  GFN2-xTB          :
          :  restarted?                      false          :
          :  GBSA solvation                  false          :
          :  PC potential                    false          :
          :  electronic temp.          300.0000000     K    :
          :  accuracy                    1.0000000          :
          :  -> integral cutoff          0.2500000E+02      :
          :  -> integral neglect         0.1000000E-07      :
          :  -> SCF convergence          0.1000000E-05 Eh   :
          :  -> wf. convergence          0.1000000E-03 e    :
          :  Broyden damping             0.4000000          :
          :  net charge                          0          :
          :  unpaired electrons                  0          :
          ...................................................

 iter      E             dE          RMSdq      gap      omega  full diag
   1   -123.5900966 -0.123590E+03  0.407E+00    4.02       0.0  T
   2   -123.9228055 -0.332709E+00  0.224E+00    3.44       1.0  T
   3   -123.9429805 -0.201750E-01  0.125E+00    3.78       1.0  T
   4   -123.9456644 -0.268390E-02  0.267E-01    3.49       1.0  T
   5   -123.9495702 -0.390576E-02  0.104E-01    3.58       1.0  T
   6   -123.9496200 -0.498252E-04  0.531E-02    3.59       1.0  T
   7   -123.9496959 -0.758743E-04  0.241E-02    3.59       1.0  T
   8   -123.9497105 -0.146178E-04  0.757E-03    3.59       1.5  T
   9   -123.9497110 -0.517009E-06  0.350E-03    3.59       3.3  T
  10   -123.9497112 -0.240967E-06  0.142E-03    3.59       8.0  T
  11   -123.9497113 -0.379076E-07  0.597E-04    3.59      19.1  T
  12   -123.9497113 -0.113757E-07  0.178E-04    3.59      64.1  T

   *** convergence criteria satisfied after 12 iterations ***

         #    Occupation            Energy/Eh            Energy/eV
      -------------------------------------------------------------
         1        2.0000           -0.7434259             -20.2296
       ...           ...                  ...                  ...
       102        2.0000           -0.4115546             -11.1990
       103        2.0000           -0.4097725             -11.1505
       104        2.0000           -0.4072092             -11.0807
       105        2.0000           -0.4033120             -10.9747
       106        2.0000           -0.3992868             -10.8651
       107        2.0000           -0.3966791             -10.7942
       108        2.0000           -0.3922442             -10.6735 (HOMO)
       109                         -0.2603064              -7.0833 (LUMO)
       110                         -0.2554967              -6.9524
       111                         -0.2499008              -6.8001
       112                         -0.2446120              -6.6562
       113                         -0.2427845              -6.6065
       ...                                ...                  ...
       194                          0.6723510              18.2956
      -------------------------------------------------------------
                  HL-Gap            0.1319378 Eh            3.5902 eV
             Fermi-level           -0.3262753 Eh           -8.8784 eV

 SCC (total)                   0 d,  0 h,  0 min, 11.705 sec
 SCC setup                      ...        0 min,  0.035 sec (  0.300%)
 Dispersion                     ...        0 min,  0.061 sec (  0.518%)
 classical contributions        ...        0 min,  0.106 sec (  0.908%)
 integral evaluation            ...        0 min,  0.628 sec (  5.369%)
 iterations                     ...        0 min, 10.387 sec ( 88.744%)
 molecular gradient             ...        0 min,  0.476 sec (  4.064%)
 printout                       ...        0 min,  0.011 sec (  0.095%)

         :::::::::::::::::::::::::::::::::::::::::::::::::::::
         ::                     SUMMARY                     ::
         :::::::::::::::::::::::::::::::::::::::::::::::::::::
         :: total energy            -122.554495729324 Eh    ::
         :: gradient norm              0.360728115677 Eh/a0 ::
         :: HOMO-LUMO gap              3.590208981577 eV    ::
         ::.................................................::
         :: SCC energy              -123.946636887769 Eh    ::
         :: -> isotropic ES            0.264748723835 Eh    ::
         :: -> anisotropic ES          0.009915674351 Eh    ::
         :: -> anisotropic XC          0.042598331631 Eh    ::
         :: -> dispersion             -0.091623178301 Eh    ::
         :: repulsion energy           1.392141158445 Eh    ::
         :: add. restraining           0.000000000000 Eh    ::
         :: total charge              -0.000000000000 e     ::
         :::::::::::::::::::::::::::::::::::::::::::::::::::::

           -------------------------------------------------
          |                Property Printout                |
           -------------------------------------------------

    * Orbital Energies and Occupations

         #    Occupation            Energy/Eh            Energy/eV
      -------------------------------------------------------------
         1        2.0000           -0.7434259             -20.2296
       ...           ...                  ...                  ...
        96        2.0000           -0.4308300             -11.7235
        97        2.0000           -0.4279175             -11.6442
        98        2.0000           -0.4249957             -11.5647
        99        2.0000           -0.4208702             -11.4525
       100        2.0000           -0.4155234             -11.3070
       101        2.0000           -0.4136461             -11.2559
       102        2.0000           -0.4115546             -11.1990
       103        2.0000           -0.4097725             -11.1505
       104        2.0000           -0.4072092             -11.0807
       105        2.0000           -0.4033120             -10.9747
       106        2.0000           -0.3992868             -10.8651
       107        2.0000           -0.3966791             -10.7942
       108        2.0000           -0.3922442             -10.6735 (HOMO)
       109                         -0.2603064              -7.0833 (LUMO)
       110                         -0.2554967              -6.9524
       111                         -0.2499008              -6.8001
       112                         -0.2446120              -6.6562
       113                         -0.2427845              -6.6065
       114                         -0.2401631              -6.5352
       115                         -0.2336712              -6.3585
       116                         -0.1960654              -5.3352
       117                         -0.0784741              -2.1354
       118                         -0.0737904              -2.0079
       119                         -0.0632105              -1.7200
       ...                                ...                  ...
       194                          0.6723510              18.2956
      -------------------------------------------------------------
                  HL-Gap            0.1319378 Eh            3.5902 eV
             Fermi-level           -0.3262753 Eh           -8.8784 eV

     #   Z          covCN         q      C6AA      α(0)
     1   7 N        2.689    -0.251    26.530     7.650
     2   6 C        3.790     0.022    20.217     6.404
     3   6 C        2.768     0.265    22.528     7.773
     4   8 O        0.858    -0.442    22.540     6.365
     5   7 N        2.686    -0.170    24.672     7.377
     6   6 C        3.808     0.018    20.267     6.408
     7   6 C        2.741     0.271    22.428     7.754
     8   6 C        3.817     0.022    20.193     6.395
     9   8 O        0.858    -0.393    21.538     6.222
    10   7 N        2.684    -0.196    25.252     7.463
    11   6 C        3.799    -0.094    22.301     6.724
    12   6 C        2.747     0.277    22.314     7.735
    13   6 C        2.778     0.278    22.293     7.733
    14   6 C        3.772     0.009    20.452     6.444
    15   8 O        0.857    -0.428    22.254     6.325
    16   8 O        0.858    -0.425    22.185     6.315
    17   7 N        2.632    -0.290    27.471     7.784
    18   7 N        2.678    -0.222    25.850     7.551
    19   6 C        3.833    -0.026    21.013     6.522
    20   6 C        2.732     0.245    22.896     7.834
    21   6 C        3.744    -0.124    22.956     6.835
    22   6 C        3.745    -0.124    22.952     6.834
    23   6 C        3.778     0.010    20.426     6.439
    24   8 O        0.857    -0.418    22.048     6.295
    25   7 N        2.689    -0.145    24.139     7.297
    26   6 C        3.795    -0.068    21.808     6.650
    27   6 C        2.766     0.262    22.579     7.782
    28   6 C        3.059     0.066    26.461     8.436
    29   8 O        0.856    -0.473    23.201     6.458
    30   7 N        1.899    -0.280    28.101     7.859
    31   6 C        2.975    -0.030    28.750     8.795
    32   6 C        2.992     0.098    25.821     8.335
    33   7 N        2.750    -0.123    23.678     7.227
    34   6 C        3.664     0.073    19.610     6.352
    35   8 O        1.652    -0.440    21.652     6.281
    36   6 C        3.850    -0.021    20.909     6.504
    37   6 C        3.763    -0.114    22.721     6.795
    38   6 C        3.767    -0.048    21.470     6.604
    39   6 C        3.742    -0.102    22.527     6.771
    40   1 H        0.860     0.197     1.121     1.659
    41   1 H        0.929     0.081     1.969     2.194
    42   1 H        0.861     0.202     1.096     1.640
    43   1 H        0.927     0.058     2.227     2.334
    44   1 H        0.921     0.087     1.911     2.162
    45   1 H        0.862     0.188     1.167     1.692
    46   1 H        0.920     0.074     2.041     2.234
    47   1 H        0.917     0.084     1.943     2.180
    48   1 H        0.929     0.096     1.818     2.108
    49   1 H        0.859     0.197     1.122     1.659
    50   1 H        0.861     0.205     1.083     1.630
    51   1 H        0.860     0.221     1.007     1.572
    52   1 H        0.928     0.057     2.232     2.336
    53   1 H        0.914     0.039     2.465     2.456
    54   1 H        0.930     0.075     2.033     2.230
    55   1 H        0.925     0.030     2.592     2.518
    56   1 H        0.928     0.060     2.201     2.320
    57   1 H        0.921     0.043     2.408     2.427
    58   1 H        0.926     0.051     2.302     2.373
    59   1 H        0.929     0.091     1.872     2.139
    60   1 H        0.858     0.201     1.101     1.644
    61   1 H        0.925     0.059     2.214     2.327
    62   1 H        0.924     0.069     2.099     2.266
    63   1 H        0.928     0.045     2.386     2.415
    64   1 H        0.912     0.037     2.487     2.467
    65   1 H        0.860     0.171     1.268     1.764
    66   1 H        0.924     0.050     2.325     2.384
    67   1 H        0.909     0.051     2.313     2.379
    68   1 H        0.806     0.323     0.655     1.271
    69   1 H        0.926     0.056     2.248     2.345
    70   1 H        0.926     0.036     2.504     2.474
    71   1 H        0.926     0.067     2.119     2.276
    72   1 H        0.920     0.052     2.294     2.369
    73   1 H        0.915     0.036     2.501     2.473
    74   1 H        0.905     0.027     2.628     2.536
    75   1 H        0.922     0.032     2.556     2.500
    76   1 H        0.928     0.050     2.318     2.381
    77   1 H        0.919     0.034     2.528     2.487

 Mol. C6AA /au·bohr⁶  :      57159.178780
 Mol. C8AA /au·bohr⁸  :    1274816.939230
 Mol. α(0) /au        :        357.950210


Wiberg/Mayer (AO) data.
largest (>0.10) Wiberg bond orders for each atom

 ---------------------------------------------------------------------------
     #   Z sym  total        # sym  WBO       # sym  WBO       # sym  WBO
 ---------------------------------------------------------------------------
     1   7 N    3.335 --     7 C    1.181     2 C    0.972    40 H    0.892
                             9 O    0.192
     2   6 C    3.963 --    34 C    0.989     1 N    0.972    41 H    0.942
                             3 C    0.934
     3   6 C    3.951 --     4 O    1.652     5 N    1.279     2 C    0.934
     4   8 O    1.988 --     3 C    1.652     5 N    0.177
     5   7 N    3.422 --     3 C    1.279     6 C    0.968    42 H    0.914
                             4 O    0.177
     6   6 C    3.964 --     5 N    0.968    43 H    0.957    27 C    0.946
                            36 C    0.938
     7   6 C    3.947 --     9 O    1.763     1 N    1.181     8 C    0.930
     8   6 C    3.964 --    11 C    0.982    10 N    0.959    44 H    0.940
                             7 C    0.930
     9   8 O    2.071 --     7 C    1.763     1 N    0.192
    10   7 N    3.409 --    12 C    1.244     8 C    0.959    45 H    0.919
                            15 O    0.190
    11   6 C    3.990 --    13 C    0.989     8 C    0.982    47 H    0.941
                            46 H    0.939
    12   6 C    3.946 --    15 O    1.698    10 N    1.244    14 C    0.931
    13   6 C    3.951 --    16 O    1.714    17 N    1.213    11 C    0.989
    14   6 C    3.955 --    18 N    0.970    48 H    0.959    19 C    0.947
                            12 C    0.931
    15   8 O    2.018 --    12 C    1.698    10 N    0.190
    16   8 O    2.005 --    13 C    1.714    17 N    0.190
    17   7 N    3.324 --    13 C    1.213    49 H    0.939    50 H    0.938
                            16 O    0.190
    18   7 N    3.415 --    20 C    1.256    14 C    0.970    51 H    0.874
                            24 O    0.203
    19   6 C    3.984 --    21 C    1.012    22 C    1.004    52 H    0.972
                            14 C    0.947
    20   6 C    3.946 --    24 O    1.718    18 N    1.256    23 C    0.883
    21   6 C    3.990 --    19 C    1.012    55 H    0.983    53 H    0.982
                            54 H    0.981
    22   6 C    3.984 --    19 C    1.004    56 H    0.988    57 H    0.983
                            58 H    0.981
    23   6 C    3.956 --    25 N    0.982    26 C    0.977    59 H    0.966
                            20 C    0.883
    24   8 O    2.039 --    20 C    1.718    18 N    0.203
    25   7 N    3.481 --    27 C    1.323    23 C    0.982    60 H    0.922
                            29 O    0.175
    26   6 C    3.984 --    28 C    0.995    23 C    0.977    61 H    0.969
                            62 H    0.956
    27   6 C    3.946 --    29 O    1.581    25 N    1.323     6 C    0.946
    28   6 C    3.974 --    31 C    1.624    30 N    1.239    26 C    0.995
    29   8 O    1.976 --    27 C    1.581    25 N    0.175
    30   7 N    3.006 --    32 C    1.551    28 C    1.239    33 N    0.118
    31   6 C    3.908 --    28 C    1.624    33 N    1.116    63 H    0.969
                            32 C    0.110
    32   6 C    3.955 --    30 N    1.551    33 N    1.296    64 H    0.956
                            31 C    0.110
    33   7 N    3.544 --    32 C    1.296    31 C    1.116    65 H    0.942
                            30 N    0.118
    34   6 C    3.961 --    35 O    1.008     2 C    0.989    66 H    0.961
                            67 H    0.960
    35   8 O    1.945 --    34 C    1.008    68 H    0.859
    36   6 C    3.982 --    37 C    1.014    38 C    0.981    69 H    0.964
                             6 C    0.938
    37   6 C    3.989 --    36 C    1.014    70 H    0.982    72 H    0.981
                            71 H    0.975
    38   6 C    3.989 --    39 C    1.020    36 C    0.981    73 H    0.978
                            74 H    0.975
    39   6 C    3.993 --    38 C    1.020    75 H    0.986    77 H    0.985
                            76 H    0.982
    40   1 H    0.961 --     1 N    0.892
    41   1 H    0.993 --     2 C    0.942
    42   1 H    0.959 --     5 N    0.914
    43   1 H    0.996 --     6 C    0.957
    44   1 H    0.992 --     8 C    0.940
    45   1 H    0.964 --    10 N    0.919
    46   1 H    0.994 --    11 C    0.939
    47   1 H    0.993 --    11 C    0.941
    48   1 H    0.990 --    14 C    0.959
    49   1 H    0.961 --    17 N    0.939
    50   1 H    0.958 --    17 N    0.938
    51   1 H    0.951 --    18 N    0.874
    52   1 H    0.996 --    19 C    0.972
    53   1 H    0.998 --    21 C    0.982
    54   1 H    0.994 --    21 C    0.981
    55   1 H    0.999 --    21 C    0.983
    56   1 H    0.996 --    22 C    0.988
    57   1 H    0.998 --    22 C    0.983
    58   1 H    0.997 --    22 C    0.981
    59   1 H    0.991 --    23 C    0.966
    60   1 H    0.960 --    25 N    0.922
    61   1 H    0.996 --    26 C    0.969
    62   1 H    0.995 --    26 C    0.956
    63   1 H    0.998 --    31 C    0.969
    64   1 H    0.998 --    32 C    0.956
    65   1 H    0.971 --    33 N    0.942
    66   1 H    0.998 --    34 C    0.961
    67   1 H    0.997 --    34 C    0.960
    68   1 H    0.896 --    35 O    0.859
    69   1 H    0.996 --    36 C    0.964
    70   1 H    0.998 --    37 C    0.982
    71   1 H    0.995 --    37 C    0.975
    72   1 H    0.997 --    37 C    0.981
    73   1 H    0.999 --    38 C    0.978
    74   1 H    0.999 --    38 C    0.975
    75   1 H    0.999 --    39 C    0.986
    76   1 H    0.997 --    39 C    0.982
    77   1 H    0.999 --    39 C    0.985
 ---------------------------------------------------------------------------

Topologies differ in total number of bonds
Writing topology from bond orders to xtbtopo.mol

molecular dipole:
                 x           y           z       tot (Debye)
 q only:       -1.971      -2.137      -1.364
   full:       -2.115      -3.064      -1.215       9.954
molecular quadrupole (traceless):
                xx          xy          yy          xz          yz          zz
 q only:       23.396      19.161     -26.987     -14.714      -4.895       3.591
  q+dip:       34.318      32.494     -37.996     -15.479      -8.348       3.678
   full:       34.165      32.390     -38.163     -15.810      -8.508       3.998


           -------------------------------------------------
          | TOTAL ENERGY             -122.554495729324 Eh   |
          | GRADIENT NORM               0.360728115677 Eh/α |
          | HOMO-LUMO GAP               3.590208981577 eV   |
           -------------------------------------------------

------------------------------------------------------------------------
 * finished run on 2026/05/23 at 12:35:04.227     
------------------------------------------------------------------------
 total:
 * wall-time:     0 d,  0 h,  0 min, 12.801 sec
 *  cpu-time:     0 d,  0 h,  0 min, 16.479 sec
 * ratio c/w:     1.287 speedup
 SCF:
 * wall-time:     0 d,  0 h,  0 min, 11.706 sec
 *  cpu-time:     0 d,  0 h,  0 min, 15.568 sec
 * ratio c/w:     1.330 speedup

normal termination of xtb
