      -----------------------------------------------------------      
     |                   =====================                   |     
     |                           x T B                           |     
     |                   =====================                   |     
     |                         S. Grimme                         |     
     |          Mulliken Center for Theoretical Chemistry        |     
     |                    University of Bonn                     |     
      -----------------------------------------------------------      

   * xtb version 6.7.1 (26dd68d) compiled by 'froitzheim@fs7' on 2026-05-14

   xtb is free software: you can redistribute it and/or modify it under
   the terms of the GNU Lesser General Public License as published by
   the Free Software Foundation, either version 3 of the License, or
   (at your option) any later version.
   
   xtb is distributed in the hope that it will be useful,
   but WITHOUT ANY WARRANTY; without even the implied warranty of
   MERCHANTABILITY or FITNESS FOR A PARTICULAR PURPOSE.  See the
   GNU Lesser General Public License for more details.
   
   Cite this work as:
   * C. Bannwarth, E. Caldeweyher, S. Ehlert, A. Hansen, P. Pracht,
     J. Seibert, S. Spicher, S. Grimme, WIREs Comput. Mol. Sci., 2020, 11,
     e01493. DOI: 10.1002/wcms.1493
   
   for g-xTB:
   * T. Froitzheim, M. Müller, A. Hansen, S. Grimme, ChemRxiv, 2025, preprint.
     DOI: 10.26434/chemrxiv-2025-bjxv
   for GFN2-xTB:
   * C. Bannwarth, S. Ehlert and S. Grimme., J. Chem. Theory Comput., 2019,
     15, 1652-1671. DOI: 10.1021/acs.jctc.8b01176
   for GFN1-xTB:
   * S. Grimme, C. Bannwarth, P. Shushkov, J. Chem. Theory Comput., 2017,
     13, 1989-2009. DOI: 10.1021/acs.jctc.7b00118
   for GFN0-xTB:
   * P. Pracht, E. Caldeweyher, S. Ehlert, S. Grimme, ChemRxiv, 2019, preprint.
     DOI: 10.26434/chemrxiv.8326202.v1
   for GFN-FF:
   * S. Spicher and S. Grimme, Angew. Chem. Int. Ed., 2020, 59, 15665-15673.
     DOI: 10.1002/anie.202004239
   
   for ALPB and GBSA implicit solvation:
   * S. Ehlert, M. Stahn, S. Spicher, S. Grimme, J. Chem. Theory Comput.,
     2021, 17, 4250-4261. DOI: 10.1021/acs.jctc.1c00471
   
   for ddCOSMO and CPCM-X implicit solvation:
   * M. Stahn, S. Ehlert, S. Grimme, J. Phys. Chem. A,
     2023, XX, XXXX-XXXX. DOI: 10.1021/acs.jpca.3c04382
   
   for DFT-D4:
   * E. Caldeweyher, C. Bannwarth and S. Grimme, J. Chem. Phys., 2017,
     147, 034112. DOI: 10.1063/1.4993215
   * E. Caldeweyher, S. Ehlert, A. Hansen, H. Neugebauer, S. Spicher,
     C. Bannwarth and S. Grimme, J. Chem. Phys., 2019, 150, 154122.
     DOI: 10.1063/1.5090222
   * E. Caldeweyher, J.-M. Mewes, S. Ehlert and S. Grimme, Phys. Chem. Chem. Phys.
     2020, 22, 8499-8512. DOI: 10.1039/D0CP00502A
   
   for sTDA-xTB:
   * S. Grimme and C. Bannwarth, J. Chem. Phys., 2016, 145, 054103.
     DOI: 10.1063/1.4959605
   
   in the mass-spec context:
   * V. Asgeirsson, C. Bauer and S. Grimme, Chem. Sci., 2017, 8, 4879.
     DOI: 10.1039/c7sc00601b
   * J. Koopman and S. Grimme, ACS Omega 2019, 4, 12, 15120-15133.
     DOI: 10.1021/acsomega.9b02011
   
   for metadynamics refer to:
   * S. Grimme, J. Chem. Theory Comput., 2019, 155, 2847-2862
     DOI: 10.1021/acs.jctc.9b00143
   
   for SPH calculations refer to:
   * S. Spicher and S. Grimme, J. Chem. Theory Comput., 2021, 17, 1701-1714
     DOI: 10.1021/acs.jctc.0c01306
   
   for ONIOM refer to:
   * C. Plett, A. Katbashev, S. Ehlert, S. Grimme, M. Bursch,
     Phys. Chem. Chem. Phys., 2023, 25, 17860-17868. DOI: 10.1039/D3CP02178E
   
   for DIPRO refer to:
   * J. Kohn, N. Gildemeister, S. Grimme, D. Fazzi, A. Hansen,
     J. Chem. Phys. 159, 144106 (2023). DOI: 10.1063/5.0167484
   
   for PTB refer to:
   * S. Grimme, M. Mueller, A. Hansen, J. Chem. Phys., 2023, 158, 124111.
     DOI: 10.1063/5.0137838
   
   with help from (in alphabetical order)
   P. Atkinson, C. Bannwarth, F. Bohle, G. Brandenburg, E. Caldeweyher,
   M. Checinski, S. Dohm, S. Ehlert, S. Ehrlich, M. Friede, T. Froitzheim,
   I. Gerasimov, C. Hölzer, A. Katbashev, J. Kohn, J. Koopman, C. Lavigne,
   S. Lehtola, F. März, M. Müller, F. Musil, H. Neugebauer, J. Pisarek,
   C. Plett, P. Pracht, F. Pultar, J. Seibert, P. Shushkov, S. Spicher,
   M. Stahn, M. Steiner, T. Strunk, J. Stückrath, T. Rose, and J. Unsleber
   
 * started run on 2026/05/23 at 08:16:16.905     
   ID    Z sym.   atoms
    1    7 N      1, 5, 10, 16, 18, 21, 27, 34, 42, 50
    2    6 C      2, 3, 6-8, 11-14, 17, 19, 20, 22-25, 28-31, 35-38, 40, 43,
                  44, 46-48
    3    8 O      4, 9, 15, 26, 32, 39, 41, 49
    4   16 S      33, 45
    5    1 H      51-96

           -------------------------------------------------
          |                Calculation Setup                |
           -------------------------------------------------

          program call               : /home/xchen/software/xtb-6.7.1-gxtb/bin/xtb /home/xchen/Test/benchmark/md_sampled/02_6_0901_0/snap_0073.xyz --charge 0 --gxtb --norestart
          coordinate file            : /home/xchen/Test/benchmark/md_sampled/02_6_0901_0/snap_0073.xyz
          omp threads                :                    48

core increment energy         -2.8923536237342E+03 Eh
dispersion energy              2.1158365120782E-02 Eh
molecular charge               0.0000000000000E+00 e
number of electrons            2.7599999999751E+02 e
number of unpaired electrons   0.0000000000000E+00 e
wavefunction                   restricted
integral cutoff                2.6907767250513E+01 bohr
energy convergence             1.0000000000000E-06 Eh
density convergence            2.0000000000000E-05 e

------------------------------------------------------------
  cycle        total energy    energy error   density error
------------------------------------------------------------
      1     -3115.423638580  -2.2309117E+02   0.0000000E+00
      2     -3115.839288582  -4.1565000E-01   1.9854145E-02
      3     -3116.100705964  -2.6141738E-01   1.5696533E-02
      4     -3116.642849732  -5.4214377E-01   1.2456368E-02
      5     -3116.652363503  -9.5137716E-03   8.5552485E-04
      6     -3116.653047225  -6.8372180E-04   1.9541730E-04
      7     -3116.653117942  -7.0717390E-05   6.6917951E-05
      8     -3116.653123512  -5.5699560E-06   2.1603239E-05
      9     -3116.653124489  -9.7618477E-07   4.8989009E-06
------------------------------------------------------------

electronic energy             -2.2432065911945E+02 Eh
total energy                  -3.1166531244885E+03 Eh

Post processing:
 | Mayer-Wiberg bond orders
 | Molecular Multipole Moments

 total:                                  34.345 sec
 - increment                              0.000 sec (  0%)
 - repulsion                              0.013 sec (  0%)
 - dispersion                             0.614 sec (  1%)
 - coulomb                                0.334 sec (  0%)
 - exchange                               0.013 sec (  0%)
 - hamiltonian                           18.695 sec ( 54%)
 - acp                                    0.551 sec (  1%)
 - spin polarization                      0.000 sec (  0%)
 - post processing                        0.022 sec (  0%)
 - scc                                   12.926 sec ( 37%)
 - coulomb gradient                       0.092 sec (  0%)
 - dispersion gradient                    0.049 sec (  0%)
 - exchange gradient                      0.155 sec (  0%)
 - repulsion gradient                     0.006 sec (  0%)
 - acp gradient                           0.286 sec (  0%)
 - hamiltonian gradient                   0.494 sec (  1%)
 - gradient                               1.082 sec (  3%)

         :::::::::::::::::::::::::::::::::::::::::::::::::::::
         ::                     SUMMARY                     ::
         :::::::::::::::::::::::::::::::::::::::::::::::::::::
         :: total energy           -3116.653124488531 Eh    ::
         :: gradient norm              0.402068343421 Eh/a0 ::
         :: HOMO-LUMO gap              8.103185135047 eV    ::
         ::.................................................::
         :: add. restraining           0.000000000000 Eh    ::
         :: total charge              -0.000000000000 e     ::
         :::::::::::::::::::::::::::::::::::::::::::::::::::::

           -------------------------------------------------
          |                Property Printout                |
           -------------------------------------------------

    * Orbital Energies and Occupations
------------------------------------------------------------------
      #    Occupation            Energy/Eh            Energy/eV
------------------------------------------------------------------
      1        2.0000           -1.3441333             -36.5757
    ...           ...                  ...                  ...
    126        2.0000           -0.3812162             -10.3734
    127        2.0000           -0.3803487             -10.3498
    128        2.0000           -0.3693396             -10.0502
    129        2.0000           -0.3685592             -10.0290
    130        2.0000           -0.3617442              -9.8436
    131        2.0000           -0.3616744              -9.8417
    132        2.0000           -0.3600280              -9.7969
    133        2.0000           -0.3578047              -9.7364
    134        2.0000           -0.3566611              -9.7052
    135        2.0000           -0.3537179              -9.6252
    136        2.0000           -0.3500967              -9.5266
    137        2.0000           -0.3473240              -9.4512
    138        2.0000           -0.3226701              -8.7803 (HOMO)
    139                         -0.0248835              -0.6771 (LUMO)
    140                          0.0100398               0.2732
    141                          0.0109962               0.2992
    142                          0.0121004               0.3293
    143                          0.0167236               0.4551
    144                          0.0272502               0.7415
    145                          0.0288354               0.7847
    146                          0.0308995               0.8408
    147                          0.0357941               0.9740
    148                          0.0367291               0.9994
    149                          0.0406573               1.1063
    ...                                ...                  ...
    256                          0.7687866              20.9197
------------------------------------------------------------------
               HL-Gap            0.2977866 Eh            8.1032 eV
------------------------------------------------------------------

Atomic charges and shell populations (in atomic units):
-----------------------------------------------------------------
     #    Z                q          p(s)       p(p)       p(d)
-----------------------------------------------------------------
     1    7 N      -0.352787      1.408676   3.944111
     2    6 C       0.008691      1.143527   2.847782
     3    6 C       0.440946      1.099465   2.459589
     4    8 O      -0.506143      1.857389   4.648754
     5    7 N      -0.360058      1.355202   4.004857
     6    6 C      -0.006043      1.123539   2.882505
     7    6 C       0.389213      1.122104   2.488684
     8    6 C       0.020606      1.127195   2.852199
     9    8 O      -0.558752      1.867436   4.691316
    10    7 N      -0.360204      1.385739   3.974465
    11    6 C      -0.152369      1.140480   3.011889
    12    6 C       0.436847      1.096880   2.466273
    13    6 C       0.003309      1.104178   2.892513
    14    6 C      -0.005451      1.144517   2.860934
    15    8 O      -0.500185      1.851977   4.648209
    16    7 N      -0.346520      1.552306   3.794215
    17    6 C      -0.069796      1.161097   2.908700
    18    7 N      -0.265205      1.347158   3.918048
    19    6 C      -0.181131      1.183887   2.997245
    20    6 C       0.058629      1.129585   2.811785
    21    7 N      -0.233462      1.366632   3.866831
    22    6 C      -0.063069      1.117940   2.945129
    23    6 C       0.399303      1.112391   2.488306
    24    6 C      -0.165296      1.147124   3.018171
    25    6 C      -0.012945      1.125728   2.887217
    26    8 O      -0.522320      1.859251   4.663069
    27    7 N      -0.364800      1.375812   3.988988
    28    6 C      -0.172786      1.150557   3.022229
    29    6 C       0.401626      1.116412   2.481962
    30    6 C      -0.129199      1.186196   2.943003
    31    6 C       0.033022      1.152611   2.814367
    32    8 O      -0.480084      1.852492   4.627593
    33   16 S      -0.213963      1.902633   4.247309   0.064021
    34    7 N      -0.321401      1.385512   3.935889
    35    6 C      -0.169774      1.136813   3.032961
    36    6 C      -0.192156      1.192304   2.999852
    37    6 C       0.409658      1.103362   2.486980
    38    6 C      -0.216611      1.129123   3.087487
    39    8 O      -0.528909      1.853226   4.675683
    40    6 C       0.406241      1.098753   2.495006
    41    8 O      -0.557162      1.860621   4.696541
    42    7 N      -0.424482      1.361355   4.063127
    43    6 C      -0.176798      1.153611   3.023187
    44    6 C      -0.136720      1.172677   2.964043
    45   16 S      -0.214979      1.879889   4.260628   0.074462
    46    6 C      -0.205851      1.180833   3.025018
    47    6 C      -0.210974      1.152576   3.058398
    48    6 C       0.391283      1.097777   2.510941
    49    8 O      -0.527896      1.849291   4.678604
    50    7 N      -0.426270      1.367898   4.058373
    51    1 H       0.288388      0.711612
    52    1 H       0.130874      0.869126
    53    1 H       0.261524      0.738476
    54    1 H       0.174176      0.825824
    55    1 H       0.129693      0.870307
    56    1 H       0.268111      0.731889
    57    1 H       0.100053      0.899947
    58    1 H       0.133775      0.866225
    59    1 H       0.149944      0.850056
    60    1 H       0.149752      0.850248
    61    1 H       0.087093      0.912907
    62    1 H       0.129103      0.870897
    63    1 H       0.138802      0.861198
    64    1 H       0.265988      0.734012
    65    1 H       0.107378      0.892622
    66    1 H       0.108685      0.891315
    67    1 H       0.096411      0.903589
    68    1 H       0.113053      0.886947
    69    1 H       0.152218      0.847782
    70    1 H       0.260260      0.739740
    71    1 H       0.108539      0.891461
    72    1 H       0.090284      0.909716
    73    1 H       0.115474      0.884526
    74    1 H       0.103030      0.896970
    75    1 H       0.118147      0.881853
    76    1 H       0.289524      0.710476
    77    1 H       0.098276      0.901724
    78    1 H       0.138703      0.861297
    79    1 H       0.112061      0.887939
    80    1 H       0.105883      0.894117
    81    1 H       0.102922      0.897078
    82    1 H       0.136312      0.863688
    83    1 H       0.116454      0.883546
    84    1 H       0.256911      0.743089
    85    1 H       0.260724      0.739276
    86    1 H       0.107091      0.892909
    87    1 H       0.103008      0.896992
    88    1 H       0.141427      0.858573
    89    1 H       0.119250      0.880750
    90    1 H       0.114553      0.885447
    91    1 H       0.082069      0.917931
    92    1 H       0.102847      0.897153
    93    1 H       0.102995      0.897005
    94    1 H       0.143932      0.856068
    95    1 H       0.271752      0.728248
    96    1 H       0.245727      0.754273
-----------------------------------------------------------------


Wiberg/Mayer (AO) data.
largest (>0.10) Wiberg bond orders for each atom

 ---------------------------------------------------------------------------
     #   Z sym  total        # sym  WBO       # sym  WBO       # sym  WBO
 ---------------------------------------------------------------------------
     1   7 N    3.299 --     7 C    1.257     2 C    0.947    51 N    0.850
                             9 C    0.153
     2   6 C    3.922 --    43 C    0.977     1 N    0.947    52 N    0.943
                             3 C    0.920
     3   6 C    3.868 --     4 C    1.691     5 N    1.180     2 C    0.920
     4   8 C    1.974 --     3 C    1.691     5 N    0.158
     5   7 N    3.296 --     3 C    1.180     6 C    0.959    53 N    0.899
                             4 C    0.158
     6   6 C    3.924 --    47 C    0.997     5 N    0.959    54 N    0.920
                            37 C    0.899
     7   6 C    3.869 --     9 C    1.614     1 N    1.257     8 C    0.933
     8   6 C    3.932 --    11 C    0.973    10 N    0.966    55 N    0.934
                             7 C    0.933
     9   8 C    1.889 --     7 C    1.614     1 N    0.153
    10   7 N    3.255 --    12 C    1.136     8 C    0.966    56 N    0.893
                            15 C    0.157
    11   6 C    3.959 --    13 C    1.018     8 C    0.973    57 N    0.945
                            58 N    0.945
    12   6 C    3.867 --    15 C    1.721    10 N    1.136    14 C    0.941
    13   6 C    3.951 --    17 C    1.535    16 N    1.239    11 C    1.018
    14   6 C    3.915 --    19 C    0.975    12 C    0.941    59 N    0.933
                            18 N    0.932
    15   8 C    2.003 --    12 C    1.721    10 N    0.157
    16   7 N    3.033 --    20 C    1.566    13 C    1.239
    17   6 C    3.888 --    13 C    1.535    21 N    1.202    60 N    0.939
                            20 C    0.113
    18   7 N    3.380 --    23 C    1.237    22 C    0.942    14 C    0.932
                            26 C    0.158
    19   6 C    3.945 --    24 C    0.977    14 C    0.975    61 N    0.965
                            62 N    0.958
    20   6 C    3.915 --    16 N    1.566    21 N    1.225    63 N    0.942
                            17 C    0.113
    21   7 N    3.506 --    20 C    1.225    17 C    1.202    64 N    0.897
    22   6 C    3.934 --    24 C    1.033    66 N    0.950    65 N    0.950
                            18 N    0.942
    23   6 C    3.868 --    26 C    1.657    18 N    1.237    25 C    0.885
    24   6 C    3.961 --    22 C    1.033    19 C    0.977    67 N    0.960
                            68 N    0.954
    25   6 C    3.929 --    28 C    0.997    27 N    0.986    69 N    0.927
                            23 C    0.885
    26   8 C    1.941 --    23 C    1.657    18 N    0.158
    27   7 N    3.265 --    29 C    1.139    25 C    0.986    70 N    0.891
                            32 C    0.149
    28   6 C    3.966 --    30 C    1.010    25 C    0.997    72 N    0.951
                            71 N    0.950
    29   6 C    3.856 --    32 C    1.738    27 N    1.139    31 C    0.899
    30   6 C    3.937 --    28 C    1.010    33 O    0.972    74 N    0.957
                            73 N    0.953
    31   6 C    3.920 --    35 C    0.984    34 N    0.961    75 N    0.940
                            29 C    0.899
    32   8 C    2.019 --    29 C    1.738    27 N    0.149
    33  16 O    2.069 --    36 C    1.002    30 C    0.972
    34   7 N    3.331 --    37 C    1.233    31 C    0.961    76 N    0.879
                            39 C    0.166
    35   6 C    3.955 --    38 C    1.015    31 C    0.984    77 N    0.948
                            78 N    0.945
    36   6 C    3.926 --    33 O    1.002    79 N    0.968    81 N    0.968
                            80 N    0.966
    37   6 C    3.873 --    39 C    1.671    34 N    1.233     6 C    0.899
    38   6 C    3.964 --    35 C    1.015    40 C    0.972    83 N    0.944
                            82 N    0.933
    39   8 C    1.966 --    37 C    1.671    34 N    0.166
    40   6 C    3.879 --    41 C    1.627    42 N    1.246    38 C    0.972
    41   8 C    1.899 --    40 C    1.627    42 N    0.164
    42   7 N    3.266 --    40 C    1.246    84 N    0.911    85 N    0.903
                            41 C    0.164
    43   6 C    3.962 --    44 C    1.011     2 C    0.977    87 N    0.958
                            86 N    0.948
    44   6 C    3.924 --    43 C    1.011    45 O    0.977    89 N    0.951
                            88 N    0.932
    45  16 O    2.084 --    46 C    1.010    44 C    0.977
    46   6 C    3.938 --    45 O    1.010    91 N    0.969    90 N    0.968
                            92 N    0.966
    47   6 C    3.959 --     6 C    0.997    93 N    0.955    48 C    0.950
                            94 N    0.932
    48   6 C    3.882 --    49 C    1.652    50 N    1.238    47 C    0.950
    49   8 C    1.945 --    48 C    1.652    50 N    0.168
    50   7 N    3.260 --    48 C    1.238    96 N    0.914    95 N    0.902
                            49 C    0.168
    51   1 N    0.917 --     1 N    0.850
    52   1 N    0.983 --     2 C    0.943
    53   1 N    0.932 --     5 N    0.899
    54   1 N    0.970 --     6 C    0.920
    55   1 N    0.983 --     8 C    0.934
    56   1 N    0.928 --    10 N    0.893
    57   1 N    0.990 --    11 C    0.945
    58   1 N    0.982 --    11 C    0.945
    59   1 N    0.978 --    14 C    0.933
    60   1 N    0.978 --    17 C    0.939
    61   1 N    0.992 --    19 C    0.965
    62   1 N    0.983 --    19 C    0.958
    63   1 N    0.981 --    20 C    0.942
    64   1 N    0.929 --    21 N    0.897
    65   1 N    0.988 --    22 C    0.950
    66   1 N    0.988 --    22 C    0.950
    67   1 N    0.991 --    24 C    0.960
    68   1 N    0.987 --    24 C    0.954
    69   1 N    0.977 --    25 C    0.927
    70   1 N    0.932 --    27 N    0.891
    71   1 N    0.988 --    28 C    0.950
    72   1 N    0.992 --    28 C    0.951
    73   1 N    0.987 --    30 C    0.953
    74   1 N    0.989 --    30 C    0.957
    75   1 N    0.986 --    31 C    0.940
    76   1 N    0.916 --    34 N    0.879
    77   1 N    0.990 --    35 C    0.948
    78   1 N    0.981 --    35 C    0.945
    79   1 N    0.987 --    36 C    0.968
    80   1 N    0.989 --    36 C    0.966
    81   1 N    0.989 --    36 C    0.968
    82   1 N    0.981 --    38 C    0.933
    83   1 N    0.986 --    38 C    0.944
    84   1 N    0.934 --    42 N    0.911
    85   1 N    0.932 --    42 N    0.903
    86   1 N    0.989 --    43 C    0.948
    87   1 N    0.989 --    43 C    0.958
    88   1 N    0.980 --    44 C    0.932
    89   1 N    0.986 --    44 C    0.951
    90   1 N    0.987 --    46 C    0.968
    91   1 N    0.993 --    46 C    0.969
    92   1 N    0.989 --    46 C    0.966
    93   1 N    0.989 --    47 C    0.955
    94   1 N    0.979 --    47 C    0.932
    95   1 N    0.926 --    50 N    0.902
    96   1 N    0.940 --    50 N    0.914
 ---------------------------------------------------------------------------

Topologies differ in total number of bonds
Writing topology from bond orders to xtbtopo.mol

Atomic dipole moments (in atomic units):
---------------------------------------------------------
     #    Z                 x            y            z
---------------------------------------------------------
           total     0.555533    -5.623855    -3.974041
---------------------------------------------------------
         |total|     6.908644    17.560023 Debye


           -------------------------------------------------
          | TOTAL ENERGY            -3116.653124488531 Eh   |
          | GRADIENT NORM               0.402068343421 Eh/α |
           -------------------------------------------------

------------------------------------------------------------------------
 * finished run on 2026/05/23 at 08:16:52.158     
------------------------------------------------------------------------
 total:
 * wall-time:     0 d,  0 h,  0 min, 35.252 sec
 *  cpu-time:     0 d,  0 h,  0 min, 56.637 sec
 * ratio c/w:     1.607 speedup
 SCF:
 * wall-time:     0 d,  0 h,  0 min, 34.791 sec
 *  cpu-time:     0 d,  0 h,  0 min, 56.271 sec
 * ratio c/w:     1.617 speedup

normal termination of xtb
