      -----------------------------------------------------------      
     |                   =====================                   |     
     |                           x T B                           |     
     |                   =====================                   |     
     |                         S. Grimme                         |     
     |          Mulliken Center for Theoretical Chemistry        |     
     |                    University of Bonn                     |     
      -----------------------------------------------------------      

   * xtb version 6.7.1 (edcfbbe) compiled by 'albert@albert-system' on 2024-07-22

   xtb is free software: you can redistribute it and/or modify it under
   the terms of the GNU Lesser General Public License as published by
   the Free Software Foundation, either version 3 of the License, or
   (at your option) any later version.
   
   xtb is distributed in the hope that it will be useful,
   but WITHOUT ANY WARRANTY; without even the implied warranty of
   MERCHANTABILITY or FITNESS FOR A PARTICULAR PURPOSE.  See the
   GNU Lesser General Public License for more details.
   
   Cite this work as:
   * C. Bannwarth, E. Caldeweyher, S. Ehlert, A. Hansen, P. Pracht,
     J. Seibert, S. Spicher, S. Grimme, WIREs Comput. Mol. Sci., 2020, 11,
     e01493. DOI: 10.1002/wcms.1493
   
   for GFN2-xTB:
   * C. Bannwarth, S. Ehlert and S. Grimme., J. Chem. Theory Comput., 2019,
     15, 1652-1671. DOI: 10.1021/acs.jctc.8b01176
   for GFN1-xTB:
   * S. Grimme, C. Bannwarth, P. Shushkov, J. Chem. Theory Comput., 2017,
     13, 1989-2009. DOI: 10.1021/acs.jctc.7b00118
   for GFN0-xTB:
   * P. Pracht, E. Caldeweyher, S. Ehlert, S. Grimme, ChemRxiv, 2019, preprint.
     DOI: 10.26434/chemrxiv.8326202.v1
   for GFN-FF:
   * S. Spicher and S. Grimme, Angew. Chem. Int. Ed., 2020, 59, 15665-15673.
     DOI: 10.1002/anie.202004239
   
   for ALPB and GBSA implicit solvation:
   * S. Ehlert, M. Stahn, S. Spicher, S. Grimme, J. Chem. Theory Comput.,
     2021, 17, 4250-4261. DOI: 10.1021/acs.jctc.1c00471
   
   for ddCOSMO and CPCM-X implicit solvation:
   * M. Stahn, S. Ehlert, S. Grimme, J. Phys. Chem. A,
     2023, XX, XXXX-XXXX. DOI: 10.1021/acs.jpca.3c04382
   
   for DFT-D4:
   * E. Caldeweyher, C. Bannwarth and S. Grimme, J. Chem. Phys., 2017,
     147, 034112. DOI: 10.1063/1.4993215
   * E. Caldeweyher, S. Ehlert, A. Hansen, H. Neugebauer, S. Spicher,
     C. Bannwarth and S. Grimme, J. Chem. Phys., 2019, 150, 154122.
     DOI: 10.1063/1.5090222
   * E. Caldeweyher, J.-M. Mewes, S. Ehlert and S. Grimme, Phys. Chem. Chem. Phys.
     2020, 22, 8499-8512. DOI: 10.1039/D0CP00502A
   
   for sTDA-xTB:
   * S. Grimme and C. Bannwarth, J. Chem. Phys., 2016, 145, 054103.
     DOI: 10.1063/1.4959605
   
   in the mass-spec context:
   * V. Asgeirsson, C. Bauer and S. Grimme, Chem. Sci., 2017, 8, 4879.
     DOI: 10.1039/c7sc00601b
   * J. Koopman and S. Grimme, ACS Omega 2019, 4, 12, 15120-15133.
     DOI: 10.1021/acsomega.9b02011
   
   for metadynamics refer to:
   * S. Grimme, J. Chem. Theory Comput., 2019, 155, 2847-2862
     DOI: 10.1021/acs.jctc.9b00143
   
   for SPH calculations refer to:
   * S. Spicher and S. Grimme, J. Chem. Theory Comput., 2021, 17, 1701-1714
     DOI: 10.1021/acs.jctc.0c01306
   
   for ONIOM refer to:
   * C. Plett, A. Katbashev, S. Ehlert, S. Grimme, M. Bursch,
     Phys. Chem. Chem. Phys., 2023, 25, 17860-17868. DOI: 10.1039/D3CP02178E
   
   for DIPRO refer to:
   * J. Kohn, N. Gildemeister, S. Grimme, D. Fazzi, A. Hansen,
     J. Chem. Phys., 2023, just accepted.
   
   for PTB refer to:
   * S. Grimme, M. Mueller, A. Hansen, J. Chem. Phys., 2023, 158, 124111.
     DOI: 10.1063/5.0137838
   
   with help from (in alphabetical order)
   P. Atkinson, C. Bannwarth, F. Bohle, G. Brandenburg, E. Caldeweyher
   M. Checinski, S. Dohm, S. Ehlert, S. Ehrlich, I. Gerasimov, C. Hölzer
   A. Katbashev, J. Kohn, J. Koopman, C. Lavigne, S. Lehtola, F. März, M. Müller,
   F. Musil, H. Neugebauer, J. Pisarek, C. Plett, P. Pracht, F. Pultar,
   J. Seibert, P. Shushkov, S. Spicher, M. Stahn, M. Steiner, T. Strunk,
   J. Stückrath, T. Rose, and J. Unsleber
   
 * started run on 2026/05/23 at 08:13:35.596     
   ID    Z sym.   atoms
    1    7 N      1, 5, 10, 16, 18, 21, 27, 34, 42, 50
    2    6 C      2, 3, 6-8, 11-14, 17, 19, 20, 22-25, 28-31, 35-38, 40, 43,
                  44, 46-48
    3    8 O      4, 9, 15, 26, 32, 39, 41, 49
    4   16 S      33, 45
    5    1 H      51-96

           -------------------------------------------------
          |                Calculation Setup                |
           -------------------------------------------------

          program call               : /home/xchen/software/xtb-6.7.1/xtb-dist/bin/xtb /home/xchen/Test/benchmark/md_sampled/02_6_0901_0/snap_0021.xyz --charge 0 --gfn 2 --norestart
          coordinate file            : /home/xchen/Test/benchmark/md_sampled/02_6_0901_0/snap_0021.xyz
          omp threads                :                    48


           -------------------------------------------------
          |                 G F N 2 - x T B                 |
           -------------------------------------------------

        Reference                      10.1021/acs.jctc.8b01176
      * Hamiltonian:
        H0-scaling (s, p, d)           1.850000    2.230000    2.230000
        zeta-weighting                 0.500000
      * Dispersion:
        s8                             2.700000
        a1                             0.520000
        a2                             5.000000
        s9                             5.000000
      * Repulsion:
        kExp                           1.500000    1.000000
        rExp                           1.000000
      * Coulomb:
        alpha                          2.000000
        third order                    shell-resolved
        anisotropic                    true
        a3                             3.000000
        a5                             4.000000
        cn-shift                       1.200000
        cn-exp                         4.000000
        max-rad                        5.000000


          ...................................................
          :                      SETUP                      :
          :.................................................:
          :  # basis functions                 258          :
          :  # atomic orbitals                 256          :
          :  # shells                          148          :
          :  # electrons                       276          :
          :  max. iterations                   250          :
          :  Hamiltonian                  GFN2-xTB          :
          :  restarted?                      false          :
          :  GBSA solvation                  false          :
          :  PC potential                    false          :
          :  electronic temp.          300.0000000     K    :
          :  accuracy                    1.0000000          :
          :  -> integral cutoff          0.2500000E+02      :
          :  -> integral neglect         0.1000000E-07      :
          :  -> SCF convergence          0.1000000E-05 Eh   :
          :  -> wf. convergence          0.1000000E-03 e    :
          :  Broyden damping             0.4000000          :
          :  net charge                          0          :
          :  unpaired electrons                  0          :
          ...................................................

 iter      E             dE          RMSdq      gap      omega  full diag
   1   -157.1898421 -0.157190E+03  0.422E+00    3.66       0.0  T
   2   -157.6858101 -0.495968E+00  0.233E+00    3.04       1.0  T
   3   -157.7253123 -0.395022E-01  0.131E+00    3.01       1.0  T
   4   -157.7305539 -0.524165E-02  0.302E-01    2.46       1.0  T
   5   -157.7352403 -0.468642E-02  0.139E-01    2.57       1.0  T
   6   -157.7353124 -0.720920E-04  0.581E-02    2.61       1.0  T
   7   -157.7354311 -0.118684E-03  0.266E-02    2.61       1.0  T
   8   -157.7354507 -0.196022E-04  0.103E-02    2.61       1.0  T
   9   -157.7354517 -0.973561E-06  0.378E-03    2.61       2.7  T
  10   -157.7354521 -0.394728E-06  0.140E-03    2.61       7.3  T
  11   -157.7354521 -0.381339E-07  0.671E-04    2.61      15.2  T
  12   -157.7354521 -0.904876E-08  0.248E-04    2.61      41.1  T

   *** convergence criteria satisfied after 12 iterations ***

         #    Occupation            Energy/Eh            Energy/eV
      -------------------------------------------------------------
         1        2.0000           -0.7291150             -19.8402
       ...           ...                  ...                  ...
       132        2.0000           -0.4064147             -11.0591
       133        2.0000           -0.4019376             -10.9373
       134        2.0000           -0.3931986             -10.6995
       135        2.0000           -0.3838575             -10.4453
       136        2.0000           -0.3789211             -10.3110
       137        2.0000           -0.3768501             -10.2546
       138        2.0000           -0.3601428              -9.8000 (HOMO)
       139                         -0.2641612              -7.1882 (LUMO)
       140                         -0.2501253              -6.8063
       141                         -0.2463204              -6.7027
       142                         -0.2383489              -6.4858
       143                         -0.2314231              -6.2973
       ...                                ...                  ...
       256                          0.6620891              18.0164
      -------------------------------------------------------------
                  HL-Gap            0.0959817 Eh            2.6118 eV
             Fermi-level           -0.3121520 Eh           -8.4941 eV

 SCC (total)                   0 d,  0 h,  0 min, 15.022 sec
 SCC setup                      ...        0 min,  0.040 sec (  0.267%)
 Dispersion                     ...        0 min,  0.112 sec (  0.748%)
 classical contributions        ...        0 min,  0.008 sec (  0.052%)
 integral evaluation            ...        0 min,  0.443 sec (  2.947%)
 iterations                     ...        0 min, 13.433 sec ( 89.425%)
 molecular gradient             ...        0 min,  0.975 sec (  6.494%)
 printout                       ...        0 min,  0.010 sec (  0.066%)

         :::::::::::::::::::::::::::::::::::::::::::::::::::::
         ::                     SUMMARY                     ::
         :::::::::::::::::::::::::::::::::::::::::::::::::::::
         :: total energy            -155.907825509050 Eh    ::
         :: gradient norm              0.325384371766 Eh/a0 ::
         :: HOMO-LUMO gap              2.611793948550 eV    ::
         ::.................................................::
         :: SCC energy              -157.729347031734 Eh    ::
         :: -> isotropic ES            0.318692270633 Eh    ::
         :: -> anisotropic ES          0.014404141317 Eh    ::
         :: -> anisotropic XC          0.055422228954 Eh    ::
         :: -> dispersion             -0.121421137300 Eh    ::
         :: repulsion energy           1.821521522684 Eh    ::
         :: add. restraining           0.000000000000 Eh    ::
         :: total charge              -0.000000000000 e     ::
         :::::::::::::::::::::::::::::::::::::::::::::::::::::

           -------------------------------------------------
          |                Property Printout                |
           -------------------------------------------------

    * Orbital Energies and Occupations

         #    Occupation            Energy/Eh            Energy/eV
      -------------------------------------------------------------
         1        2.0000           -0.7291150             -19.8402
       ...           ...                  ...                  ...
       126        2.0000           -0.4237315             -11.5303
       127        2.0000           -0.4214189             -11.4674
       128        2.0000           -0.4169693             -11.3463
       129        2.0000           -0.4156555             -11.3106
       130        2.0000           -0.4130171             -11.2388
       131        2.0000           -0.4104125             -11.1679
       132        2.0000           -0.4064147             -11.0591
       133        2.0000           -0.4019376             -10.9373
       134        2.0000           -0.3931986             -10.6995
       135        2.0000           -0.3838575             -10.4453
       136        2.0000           -0.3789211             -10.3110
       137        2.0000           -0.3768501             -10.2546
       138        2.0000           -0.3601428              -9.8000 (HOMO)
       139                         -0.2641612              -7.1882 (LUMO)
       140                         -0.2501253              -6.8063
       141                         -0.2463204              -6.7027
       142                         -0.2383489              -6.4858
       143                         -0.2314231              -6.2973
       144                         -0.2286731              -6.2225
       145                         -0.2276586              -6.1949
       146                         -0.2165461              -5.8925
       147                         -0.2163219              -5.8864
       148                         -0.2156937              -5.8693
       149                         -0.2004099              -5.4534
       ...                                ...                  ...
       256                          0.6620891              18.0164
      -------------------------------------------------------------
                  HL-Gap            0.0959817 Eh            2.6118 eV
             Fermi-level           -0.3121520 Eh           -8.4941 eV

     #   Z          covCN         q      C6AA      α(0)
     1   7 N        2.679    -0.252    26.547     7.652
     2   6 C        3.781     0.020    20.252     6.411
     3   6 C        2.760     0.275    22.356     7.743
     4   8 O        0.858    -0.392    21.518     6.219
     5   7 N        2.729    -0.209    25.543     7.506
     6   6 C        3.810     0.035    19.984     6.363
     7   6 C        2.761     0.273    22.378     7.747
     8   6 C        3.794     0.019    20.253     6.409
     9   8 O        0.862    -0.414    21.951     6.282
    10   7 N        2.684    -0.187    25.043     7.432
    11   6 C        3.825    -0.074    21.902     6.659
    12   6 C        2.734     0.269    22.459     7.759
    13   6 C        3.226     0.065    25.789     8.250
    14   6 C        3.817    -0.014    20.810     6.492
    15   8 O        0.857    -0.403    21.734     6.250
    16   7 N        1.929    -0.287    28.269     7.884
    17   6 C        3.018    -0.026    28.623     8.776
    18   7 N        2.742    -0.119    23.596     7.215
    19   6 C        3.820    -0.065    21.722     6.633
    20   6 C        3.136     0.082    25.951     8.338
    21   7 N        2.822    -0.085    22.884     7.105
    22   6 C        3.770     0.003    20.555     6.461
    23   6 C        2.780     0.262    22.581     7.783
    24   6 C        3.813    -0.052    21.498     6.599
    25   6 C        3.766     0.011    20.422     6.441
    26   8 O        0.859    -0.405    21.781     6.257
    27   7 N        2.685    -0.204    25.428     7.489
    28   6 C        3.839    -0.062    21.653     6.620
    29   6 C        2.753     0.269    22.455     7.760
    30   6 C        3.797    -0.018    20.904     6.510
    31   6 C        3.779     0.018    20.302     6.419
    32   8 O        0.858    -0.402    21.718     6.248
    33  16 S        2.008    -0.182   148.767    20.528
    34   7 N        2.691    -0.190    25.119     7.444
    35   6 C        3.807    -0.069    21.812     6.649
    36   6 C        3.741    -0.049    21.536     6.621
    37   6 C        2.789     0.256    22.689     7.803
    38   6 C        3.805    -0.089    22.185     6.705
    39   8 O        0.857    -0.461    22.936     6.421
    40   6 C        2.747     0.291    22.066     7.692
    41   8 O        0.858    -0.399    21.658     6.240
    42   7 N        2.633    -0.286    27.374     7.770
    43   6 C        3.830    -0.062    21.667     6.623
    44   6 C        3.799    -0.012    20.794     6.493
    45  16 S        1.980    -0.185   148.890    20.537
    46   6 C        3.751    -0.068    21.865     6.668
    47   6 C        3.816    -0.094    22.285     6.719
    48   6 C        2.757     0.289    22.096     7.698
    49   8 O        0.860    -0.434    22.371     6.341
    50   7 N        2.645    -0.255    26.633     7.665
    51   1 H        0.861     0.210     1.055     1.609
    52   1 H        0.921     0.090     1.881     2.145
    53   1 H        0.861     0.172     1.262     1.760
    54   1 H        0.923     0.110     1.697     2.037
    55   1 H        0.926     0.090     1.883     2.146
    56   1 H        0.862     0.191     1.154     1.682
    57   1 H        0.925     0.073     2.053     2.241
    58   1 H        0.925     0.080     1.975     2.198
    59   1 H        0.921     0.108     1.714     2.047
    60   1 H        0.923     0.051     2.307     2.376
    61   1 H        0.914     0.039     2.466     2.456
    62   1 H        0.928     0.048     2.339     2.391
    63   1 H        0.924     0.041     2.438     2.442
    64   1 H        0.859     0.163     1.314     1.795
    65   1 H        0.922     0.040     2.450     2.448
    66   1 H        0.928     0.057     2.237     2.339
    67   1 H        0.922     0.053     2.281     2.362
    68   1 H        0.923     0.031     2.573     2.509
    69   1 H        0.926     0.099     1.795     2.095
    70   1 H        0.861     0.202     1.098     1.641
    71   1 H        0.917     0.035     2.512     2.479
    72   1 H        0.923     0.028     2.611     2.527
    73   1 H        0.927     0.067     2.122     2.278
    74   1 H        0.922     0.041     2.431     2.438
    75   1 H        0.917     0.084     1.942     2.179
    76   1 H        0.862     0.202     1.098     1.641
    77   1 H        0.928     0.062     2.177     2.307
    78   1 H        0.927     0.068     2.105     2.269
    79   1 H        0.919     0.052     2.292     2.368
    80   1 H        0.926     0.050     2.318     2.381
    81   1 H        0.924     0.049     2.337     2.391
    82   1 H        0.924     0.072     2.060     2.245
    83   1 H        0.916     0.031     2.575     2.510
    84   1 H        0.857     0.181     1.208     1.722
    85   1 H        0.859     0.178     1.223     1.732
    86   1 H        0.915     0.049     2.330     2.387
    87   1 H        0.925     0.049     2.331     2.387
    88   1 H        0.927     0.069     2.098     2.265
    89   1 H        0.927     0.059     2.210     2.325
    90   1 H        0.928     0.050     2.325     2.385
    91   1 H        0.929     0.051     2.308     2.376
    92   1 H        0.927     0.057     2.234     2.337
    93   1 H        0.924     0.050     2.315     2.379
    94   1 H        0.924     0.089     1.891     2.151
    95   1 H        0.859     0.203     1.090     1.635
    96   1 H        0.861     0.187     1.177     1.699

 Mol. C6AA /au·bohr⁶  :     100305.140932
 Mol. C8AA /au·bohr⁸  :    2412789.259462
 Mol. α(0) /au        :        478.842416


Wiberg/Mayer (AO) data.
largest (>0.10) Wiberg bond orders for each atom

 ---------------------------------------------------------------------------
     #   Z sym  total        # sym  WBO       # sym  WBO       # sym  WBO
 ---------------------------------------------------------------------------
     1   7 N    3.313 --     7 C    1.214     2 C    0.937    51 H    0.885
                             9 O    0.171
     2   6 C    3.959 --     3 C    0.985    43 C    0.970    52 H    0.950
                             1 N    0.937
     3   6 C    3.953 --     4 O    1.730     5 N    1.168     2 C    0.985
     4   8 O    2.048 --     3 C    1.730     5 N    0.185
     5   7 N    3.391 --     3 C    1.168     6 C    0.981    53 H    0.933
                             4 O    0.185
     6   6 C    3.960 --     5 N    0.981    47 C    0.969    37 C    0.962
                            54 H    0.929
     7   6 C    3.950 --     9 O    1.727     1 N    1.214     8 C    0.937
     8   6 C    3.965 --    11 C    0.974    10 N    0.954    55 H    0.950
                             7 C    0.937
     9   8 O    2.027 --     7 C    1.727     1 N    0.171
    10   7 N    3.408 --    12 C    1.268     8 C    0.954    56 H    0.927
                            15 O    0.189
    11   6 C    3.989 --    13 C    1.012     8 C    0.974    57 H    0.960
                            58 H    0.956
    12   6 C    3.949 --    15 O    1.725    10 N    1.268    14 C    0.888
    13   6 C    3.980 --    17 C    1.552    16 N    1.277    11 C    1.012
    14   6 C    3.946 --    19 C    0.982    18 N    0.965    59 H    0.948
                            12 C    0.888
    15   8 O    2.040 --    12 C    1.725    10 N    0.189
    16   7 N    3.029 --    20 C    1.524    13 C    1.277    21 N    0.106
    17   6 C    3.936 --    13 C    1.552    21 N    1.199    60 H    0.967
                            20 C    0.132
    18   7 N    3.462 --    23 C    1.232    22 C    0.980    14 C    0.965
                            26 O    0.191
    19   6 C    3.991 --    24 C    1.012    14 C    0.982    62 H    0.977
                            61 H    0.973
    20   6 C    3.955 --    16 N    1.524    21 N    1.270    63 H    0.965
                            17 C    0.132
    21   7 N    3.590 --    20 C    1.270    17 C    1.199    64 H    0.944
                            16 N    0.106
    22   6 C    3.970 --    24 C    1.003    18 N    0.980    66 H    0.962
                            65 H    0.960
    23   6 C    3.952 --    26 O    1.705    18 N    1.232    25 C    0.923
    24   6 C    3.996 --    19 C    1.012    22 C    1.003    67 H    0.973
                            68 H    0.973
    25   6 C    3.962 --    27 N    0.998    69 H    0.954    28 C    0.953
                            23 C    0.923
    26   8 O    2.043 --    23 C    1.705    18 N    0.191
    27   7 N    3.407 --    29 C    1.209    25 C    0.998    70 H    0.911
                            32 O    0.193
    28   6 C    3.990 --    30 C    1.023    71 H    0.975    72 H    0.963
                            25 C    0.953
    29   6 C    3.953 --    32 O    1.737    27 N    1.209    31 C    0.927
    30   6 C    3.978 --    28 C    1.023    33 S    0.988    74 H    0.967
                            73 H    0.940
    31   6 C    3.957 --    34 N    0.991    35 C    0.968    75 H    0.951
                            29 C    0.927
    32   8 O    2.046 --    29 C    1.737    27 N    0.193
    33  16 S    2.098 --    36 C    1.019    30 C    0.988
    34   7 N    3.428 --    37 C    1.225    31 C    0.991    76 H    0.938
                            39 O    0.183
    35   6 C    3.988 --    38 C    0.993    77 H    0.972    78 H    0.970
                            31 C    0.968
    36   6 C    3.971 --    33 S    1.019    81 H    0.981    80 H    0.980
                            79 H    0.974
    37   6 C    3.945 --    39 O    1.646    34 N    1.225     6 C    0.962
    38   6 C    3.993 --    35 C    0.993    40 C    0.982    82 H    0.954
                            83 H    0.944
    39   8 O    1.971 --    37 C    1.646    34 N    0.183
    40   6 C    3.948 --    41 O    1.750    42 N    1.185    38 C    0.982
    41   8 O    2.041 --    40 C    1.750    42 N    0.181
    42   7 N    3.291 --    40 C    1.185    85 H    0.944    84 H    0.944
                            41 O    0.181
    43   6 C    3.989 --    44 C    1.010    87 H    0.974     2 C    0.970
                            86 H    0.956
    44   6 C    3.975 --    43 C    1.010    45 S    0.996    89 H    0.971
                            88 H    0.962
    45  16 S    2.090 --    46 C    1.005    44 C    0.996
    46   6 C    3.962 --    45 S    1.005    90 H    0.981    92 H    0.978
                            91 H    0.965
    47   6 C    3.991 --    93 H    0.973     6 C    0.969    94 H    0.958
                            48 C    0.954
    48   6 C    3.954 --    49 O    1.685    50 N    1.289    47 C    0.954
    49   8 O    1.995 --    48 C    1.685    50 N    0.201
    50   7 N    3.400 --    48 C    1.289    96 H    0.942    95 H    0.930
                            49 O    0.201
    51   1 H    0.956 --     1 N    0.885
    52   1 H    0.991 --     2 C    0.950
    53   1 H    0.970 --     5 N    0.933
    54   1 H    0.988 --     6 C    0.929
    55   1 H    0.991 --     8 C    0.950
    56   1 H    0.964 --    10 N    0.927
    57   1 H    0.994 --    11 C    0.960
    58   1 H    0.993 --    11 C    0.956
    59   1 H    0.988 --    14 C    0.948
    60   1 H    0.997 --    17 C    0.967
    61   1 H    0.998 --    19 C    0.973
    62   1 H    0.997 --    19 C    0.977
    63   1 H    0.998 --    20 C    0.965
    64   1 H    0.973 --    21 N    0.944
    65   1 H    0.998 --    22 C    0.960
    66   1 H    0.997 --    22 C    0.962
    67   1 H    0.996 --    24 C    0.973
    68   1 H    0.999 --    24 C    0.973
    69   1 H    0.990 --    25 C    0.954
    70   1 H    0.959 --    27 N    0.911
    71   1 H    0.997 --    28 C    0.975
    72   1 H    0.999 --    28 C    0.963
    73   1 H    0.996 --    30 C    0.940
    74   1 H    0.997 --    30 C    0.967
    75   1 H    0.992 --    31 C    0.951
    76   1 H    0.959 --    34 N    0.938
    77   1 H    0.996 --    35 C    0.972
    78   1 H    0.995 --    35 C    0.970
    79   1 H    0.997 --    36 C    0.974
    80   1 H    0.997 --    36 C    0.980
    81   1 H    0.998 --    36 C    0.981
    82   1 H    0.995 --    38 C    0.954
    83   1 H    0.999 --    38 C    0.944
    84   1 H    0.967 --    42 N    0.944
    85   1 H    0.968 --    42 N    0.944
    86   1 H    0.997 --    43 C    0.956
    87   1 H    0.998 --    43 C    0.974
    88   1 H    0.995 --    44 C    0.962
    89   1 H    0.997 --    44 C    0.971
    90   1 H    0.998 --    46 C    0.981
    91   1 H    0.997 --    46 C    0.965
    92   1 H    0.997 --    46 C    0.978
    93   1 H    0.997 --    47 C    0.973
    94   1 H    0.992 --    47 C    0.958
    95   1 H    0.958 --    50 N    0.930
    96   1 H    0.965 --    50 N    0.942
 ---------------------------------------------------------------------------

Topologies differ in total number of bonds
Writing topology from bond orders to xtbtopo.mol

molecular dipole:
                 x           y           z       tot (Debye)
 q only:        2.318      -2.148      -4.926
   full:        2.718      -3.189      -5.869      18.329
molecular quadrupole (traceless):
                xx          xy          yy          xz          yz          zz
 q only:       49.397     -33.365     -47.521      20.544      10.183      -1.876
  q+dip:       51.172     -44.214     -51.125      39.017      18.767      -0.048
   full:       53.260     -45.716     -52.477      37.668      17.123      -0.782


           -------------------------------------------------
          | TOTAL ENERGY             -155.907825509050 Eh   |
          | GRADIENT NORM               0.325384371766 Eh/α |
          | HOMO-LUMO GAP               2.611793948550 eV   |
           -------------------------------------------------

------------------------------------------------------------------------
 * finished run on 2026/05/23 at 08:13:51.222     
------------------------------------------------------------------------
 total:
 * wall-time:     0 d,  0 h,  0 min, 15.624 sec
 *  cpu-time:     0 d,  0 h,  0 min, 20.711 sec
 * ratio c/w:     1.326 speedup
 SCF:
 * wall-time:     0 d,  0 h,  0 min, 15.042 sec
 *  cpu-time:     0 d,  0 h,  0 min, 20.084 sec
 * ratio c/w:     1.335 speedup

normal termination of xtb
