      -----------------------------------------------------------      
     |                   =====================                   |     
     |                           x T B                           |     
     |                   =====================                   |     
     |                         S. Grimme                         |     
     |          Mulliken Center for Theoretical Chemistry        |     
     |                    University of Bonn                     |     
      -----------------------------------------------------------      

   * xtb version 6.7.1 (26dd68d) compiled by 'froitzheim@fs7' on 2026-05-14

   xtb is free software: you can redistribute it and/or modify it under
   the terms of the GNU Lesser General Public License as published by
   the Free Software Foundation, either version 3 of the License, or
   (at your option) any later version.
   
   xtb is distributed in the hope that it will be useful,
   but WITHOUT ANY WARRANTY; without even the implied warranty of
   MERCHANTABILITY or FITNESS FOR A PARTICULAR PURPOSE.  See the
   GNU Lesser General Public License for more details.
   
   Cite this work as:
   * C. Bannwarth, E. Caldeweyher, S. Ehlert, A. Hansen, P. Pracht,
     J. Seibert, S. Spicher, S. Grimme, WIREs Comput. Mol. Sci., 2020, 11,
     e01493. DOI: 10.1002/wcms.1493
   
   for g-xTB:
   * T. Froitzheim, M. Müller, A. Hansen, S. Grimme, ChemRxiv, 2025, preprint.
     DOI: 10.26434/chemrxiv-2025-bjxv
   for GFN2-xTB:
   * C. Bannwarth, S. Ehlert and S. Grimme., J. Chem. Theory Comput., 2019,
     15, 1652-1671. DOI: 10.1021/acs.jctc.8b01176
   for GFN1-xTB:
   * S. Grimme, C. Bannwarth, P. Shushkov, J. Chem. Theory Comput., 2017,
     13, 1989-2009. DOI: 10.1021/acs.jctc.7b00118
   for GFN0-xTB:
   * P. Pracht, E. Caldeweyher, S. Ehlert, S. Grimme, ChemRxiv, 2019, preprint.
     DOI: 10.26434/chemrxiv.8326202.v1
   for GFN-FF:
   * S. Spicher and S. Grimme, Angew. Chem. Int. Ed., 2020, 59, 15665-15673.
     DOI: 10.1002/anie.202004239
   
   for ALPB and GBSA implicit solvation:
   * S. Ehlert, M. Stahn, S. Spicher, S. Grimme, J. Chem. Theory Comput.,
     2021, 17, 4250-4261. DOI: 10.1021/acs.jctc.1c00471
   
   for ddCOSMO and CPCM-X implicit solvation:
   * M. Stahn, S. Ehlert, S. Grimme, J. Phys. Chem. A,
     2023, XX, XXXX-XXXX. DOI: 10.1021/acs.jpca.3c04382
   
   for DFT-D4:
   * E. Caldeweyher, C. Bannwarth and S. Grimme, J. Chem. Phys., 2017,
     147, 034112. DOI: 10.1063/1.4993215
   * E. Caldeweyher, S. Ehlert, A. Hansen, H. Neugebauer, S. Spicher,
     C. Bannwarth and S. Grimme, J. Chem. Phys., 2019, 150, 154122.
     DOI: 10.1063/1.5090222
   * E. Caldeweyher, J.-M. Mewes, S. Ehlert and S. Grimme, Phys. Chem. Chem. Phys.
     2020, 22, 8499-8512. DOI: 10.1039/D0CP00502A
   
   for sTDA-xTB:
   * S. Grimme and C. Bannwarth, J. Chem. Phys., 2016, 145, 054103.
     DOI: 10.1063/1.4959605
   
   in the mass-spec context:
   * V. Asgeirsson, C. Bauer and S. Grimme, Chem. Sci., 2017, 8, 4879.
     DOI: 10.1039/c7sc00601b
   * J. Koopman and S. Grimme, ACS Omega 2019, 4, 12, 15120-15133.
     DOI: 10.1021/acsomega.9b02011
   
   for metadynamics refer to:
   * S. Grimme, J. Chem. Theory Comput., 2019, 155, 2847-2862
     DOI: 10.1021/acs.jctc.9b00143
   
   for SPH calculations refer to:
   * S. Spicher and S. Grimme, J. Chem. Theory Comput., 2021, 17, 1701-1714
     DOI: 10.1021/acs.jctc.0c01306
   
   for ONIOM refer to:
   * C. Plett, A. Katbashev, S. Ehlert, S. Grimme, M. Bursch,
     Phys. Chem. Chem. Phys., 2023, 25, 17860-17868. DOI: 10.1039/D3CP02178E
   
   for DIPRO refer to:
   * J. Kohn, N. Gildemeister, S. Grimme, D. Fazzi, A. Hansen,
     J. Chem. Phys. 159, 144106 (2023). DOI: 10.1063/5.0167484
   
   for PTB refer to:
   * S. Grimme, M. Mueller, A. Hansen, J. Chem. Phys., 2023, 158, 124111.
     DOI: 10.1063/5.0137838
   
   with help from (in alphabetical order)
   P. Atkinson, C. Bannwarth, F. Bohle, G. Brandenburg, E. Caldeweyher,
   M. Checinski, S. Dohm, S. Ehlert, S. Ehrlich, M. Friede, T. Froitzheim,
   I. Gerasimov, C. Hölzer, A. Katbashev, J. Kohn, J. Koopman, C. Lavigne,
   S. Lehtola, F. März, M. Müller, F. Musil, H. Neugebauer, J. Pisarek,
   C. Plett, P. Pracht, F. Pultar, J. Seibert, P. Shushkov, S. Spicher,
   M. Stahn, M. Steiner, T. Strunk, J. Stückrath, T. Rose, and J. Unsleber
   
 * started run on 2026/05/23 at 13:01:50.488     
   ID    Z sym.   atoms
    1    7 N      1, 5, 10, 17, 27, 34, 39, 43, 54, 56, 57
    2    6 C      2, 3, 6-8, 11-14, 16, 18, 21-23, 28-31, 33, 35-38, 40,
                  44-48, 50-53, 55, 58
    3    8 O      4, 9, 15, 19, 20, 24-26, 32, 41, 49
    4   16 S      42
    5    1 H      59-117

           -------------------------------------------------
          |                Calculation Setup                |
           -------------------------------------------------

          program call               : /home/xchen/software/xtb-6.7.1-gxtb/bin/xtb /home/xchen/Test/benchmark/md_sampled/04_7_0231_n2/snap_0183.xyz --charge -2 --gxtb --norestart
          coordinate file            : /home/xchen/Test/benchmark/md_sampled/04_7_0231_n2/snap_0183.xyz
          omp threads                :                    48

core increment energy         -2.9312527735450E+03 Eh
dispersion energy              2.3019941627067E-02 Eh
molecular charge              -2.0000000000000E+00 e
number of electrons            3.2799999999710E+02 e
number of unpaired electrons   0.0000000000000E+00 e
wavefunction                   restricted
integral cutoff                2.6907767250513E+01 bohr
energy convergence             1.0000000000000E-06 Eh
density convergence            2.0000000000000E-05 e

------------------------------------------------------------
  cycle        total energy    energy error   density error
------------------------------------------------------------
      1     -3195.895356364  -2.6466560E+02   0.0000000E+00
      2     -3196.388039822  -4.9268346E-01   2.0698147E-02
      3     -3196.703140033  -3.1510021E-01   1.6266096E-02
      4     -3197.368214603  -6.6507457E-01   1.2837545E-02
      5     -3197.378357501  -1.0142897E-02   8.1542306E-04
      6     -3197.379196643  -8.3914250E-04   1.6829318E-04
      7     -3197.379266107  -6.9463953E-05   5.2010583E-05
      8     -3197.379270697  -4.5897025E-06   1.3924614E-05
      9     -3197.379271249  -5.5219817E-07   2.4780681E-06
------------------------------------------------------------

electronic energy             -2.6614951764572E+02 Eh
total energy                  -3.1973792712491E+03 Eh

Post processing:
 | Mayer-Wiberg bond orders
 | Molecular Multipole Moments

 total:                                   4.920 sec
 - increment                              0.000 sec (  0%)
 - repulsion                              0.004 sec (  0%)
 - dispersion                             0.150 sec (  3%)
 - coulomb                                0.078 sec (  1%)
 - exchange                               0.003 sec (  0%)
 - hamiltonian                            1.842 sec ( 37%)
 - acp                                    0.116 sec (  2%)
 - spin polarization                      0.000 sec (  0%)
 - post processing                        0.042 sec (  0%)
 - scc                                    2.280 sec ( 46%)
 - coulomb gradient                       0.040 sec (  0%)
 - dispersion gradient                    0.015 sec (  0%)
 - exchange gradient                      0.075 sec (  1%)
 - repulsion gradient                     0.002 sec (  0%)
 - acp gradient                           0.120 sec (  2%)
 - hamiltonian gradient                   0.184 sec (  3%)
 - gradient                               0.437 sec (  8%)

         :::::::::::::::::::::::::::::::::::::::::::::::::::::
         ::                     SUMMARY                     ::
         :::::::::::::::::::::::::::::::::::::::::::::::::::::
         :: total energy           -3197.379271249094 Eh    ::
         :: gradient norm              0.427963178869 Eh/a0 ::
         :: HOMO-LUMO gap              6.236934203728 eV    ::
         ::.................................................::
         :: add. restraining           0.000000000000 Eh    ::
         :: total charge              -2.000000000000 e     ::
         :::::::::::::::::::::::::::::::::::::::::::::::::::::

           -------------------------------------------------
          |                Property Printout                |
           -------------------------------------------------

    * Orbital Energies and Occupations
------------------------------------------------------------------
      #    Occupation            Energy/Eh            Energy/eV
------------------------------------------------------------------
      1        2.0000           -1.2155046             -33.0756
    ...           ...                  ...                  ...
    152        2.0000           -0.2219576              -6.0398
    153        2.0000           -0.2199160              -5.9842
    154        2.0000           -0.2154422              -5.8625
    155        2.0000           -0.2141206              -5.8265
    156        2.0000           -0.2043360              -5.5603
    157        2.0000           -0.1993621              -5.4249
    158        2.0000           -0.1915530              -5.2124
    159        2.0000           -0.1910463              -5.1986
    160        2.0000           -0.1683475              -4.5810
    161        2.0000           -0.1515700              -4.1244
    162        2.0000           -0.1441269              -3.9219
    163        2.0000           -0.1298942              -3.5346
    164        2.0000           -0.1060733              -2.8864 (HOMO)
    165                          0.1231298               3.3505 (LUMO)
    166                          0.1357083               3.6928
    167                          0.1386484               3.7728
    168                          0.1512849               4.1167
    169                          0.1614923               4.3944
    170                          0.1652292               4.4961
    171                          0.1665644               4.5324
    172                          0.1757585               4.7826
    173                          0.1879988               5.1157
    174                          0.1932980               5.2599
    175                          0.2330923               6.3428
    ...                                ...                  ...
    296                          0.9814429              26.7064
------------------------------------------------------------------
               HL-Gap            0.2292031 Eh            6.2369 eV
------------------------------------------------------------------

Atomic charges and shell populations (in atomic units):
-----------------------------------------------------------------
     #    Z                q          p(s)       p(p)       p(d)
-----------------------------------------------------------------
     1    7 N      -0.384971      1.360440   4.024531
     2    6 C       0.001775      1.116679   2.881546
     3    6 C       0.440608      1.091619   2.467773
     4    8 O      -0.530316      1.848497   4.681819
     5    7 N      -0.334838      1.365354   3.969484
     6    6 C      -0.021069      1.097609   2.923461
     7    6 C       0.432923      1.097958   2.469119
     8    6 C      -0.015386      1.112059   2.903327
     9    8 O      -0.507975      1.845825   4.662151
    10    7 N      -0.311399      1.362954   3.948446
    11    6 C      -0.194016      1.158914   3.035103
    12    6 C       0.417687      1.121829   2.460484
    13    6 C      -0.212180      1.210002   3.002178
    14    6 C       0.018736      1.102959   2.878305
    15    8 O      -0.595935      1.858846   4.737089
    16    6 C       0.527473      1.087061   2.385466
    17    7 N      -0.340257      1.400637   3.939620
    18    6 C      -0.215385      1.153781   3.061604
    19    8 O      -0.677457      1.854698   4.822759
    20    8 O      -0.683492      1.859006   4.824486
    21    6 C       0.407766      1.097890   2.494344
    22    6 C       0.536502      1.060823   2.402674
    23    6 C       0.001516      1.122797   2.875686
    24    8 O      -0.620414      1.852048   4.768366
    25    8 O      -0.603211      1.844843   4.758368
    26    8 O      -0.706743      1.836629   4.870113
    27    7 N      -0.323191      1.377078   3.946112
    28    6 C      -0.189740      1.133490   3.056249
    29    6 C       0.406784      1.110044   2.483172
    30    6 C      -0.170569      1.154790   3.015779
    31    6 C       0.021545      1.121630   2.856825
    32    8 O      -0.563298      1.857124   4.706174
    33    6 C      -0.205902      1.172186   3.033716
    34    7 N      -0.315755      1.362988   3.952767
    35    6 C      -0.189262      1.147515   3.041748
    36    6 C      -0.079328      1.156439   2.922889
    37    6 C       0.402976      1.109222   2.487802
    38    6 C      -0.116326      1.178518   2.937808
    39    7 N      -0.510471      1.441373   4.069098
    40    6 C      -0.008068      1.113496   2.894572
    41    8 O      -0.581261      1.854388   4.726874
    42   16 S      -0.219784      1.895050   4.254674   0.070059
    43    7 N      -0.374959      1.345942   4.029017
    44    6 C      -0.098473      1.140880   2.957593
    45    6 C      -0.207186      1.191176   3.016009
    46    6 C       0.419320      1.104869   2.475811
    47    6 C      -0.234381      1.170069   3.064312
    48    6 C      -0.187686      1.162507   3.025179
    49    8 O      -0.507260      1.852764   4.654496
    50    6 C      -0.265639      1.170957   3.094682
    51    6 C      -0.195705      1.150054   3.045652
    52    6 C      -0.166135      1.154276   3.011859
    53    6 C      -0.068233      1.131940   2.936293
    54    7 N      -0.356076      1.345005   4.011071
    55    6 C       0.262444      1.099321   2.638235
    56    7 N      -0.579308      1.605928   3.973380
    57    7 N      -0.483232      1.467061   4.016171
    58    6 C      -0.287967      1.177794   3.110173
    59    1 H       0.294416      0.705584
    60    1 H       0.114853      0.885147
    61    1 H       0.299575      0.700425
    62    1 H       0.150721      0.849279
    63    1 H       0.120029      0.879971
    64    1 H       0.264893      0.735107
    65    1 H       0.113921      0.886079
    66    1 H       0.099024      0.900976
    67    1 H       0.073746      0.926254
    68    1 H       0.060140      0.939860
    69    1 H       0.120385      0.879615
    70    1 H       0.344025      0.655975
    71    1 H       0.091391      0.908609
    72    1 H       0.103068      0.896932
    73    1 H       0.123747      0.876253
    74    1 H       0.272513      0.727487
    75    1 H       0.099708      0.900292
    76    1 H       0.112405      0.887595
    77    1 H       0.094326      0.905674
    78    1 H       0.086538      0.913462
    79    1 H       0.106319      0.893681
    80    1 H       0.112868      0.887132
    81    1 H       0.072606      0.927394
    82    1 H       0.260895      0.739105
    83    1 H       0.144845      0.855155
    84    1 H       0.118358      0.881642
    85    1 H       0.060256      0.939744
    86    1 H       0.075369      0.924631
    87    1 H       0.107024      0.892976
    88    1 H       0.099275      0.900725
    89    1 H       0.252239      0.747761
    90    1 H       0.219685      0.780315
    91    1 H       0.121400      0.878600
    92    1 H       0.248986      0.751014
    93    1 H       0.128399      0.871601
    94    1 H       0.100771      0.899229
    95    1 H       0.119979      0.880021
    96    1 H       0.094390      0.905610
    97    1 H       0.085906      0.914094
    98    1 H       0.092312      0.907688
    99    1 H       0.079976      0.920024
   100    1 H       0.086699      0.913301
   101    1 H       0.103258      0.896742
   102    1 H       0.083041      0.916959
   103    1 H       0.091488      0.908512
   104    1 H       0.113919      0.886081
   105    1 H       0.133046      0.866954
   106    1 H       0.114502      0.885498
   107    1 H       0.084455      0.915545
   108    1 H       0.100219      0.899781
   109    1 H       0.092334      0.907666
   110    1 H       0.097979      0.902021
   111    1 H       0.266724      0.733276
   112    1 H       0.210893      0.789107
   113    1 H       0.246422      0.753578
   114    1 H       0.251837      0.748163
   115    1 H       0.135645      0.864355
   116    1 H       0.094989      0.905011
   117    1 H       0.093453      0.906547
-----------------------------------------------------------------


Wiberg/Mayer (AO) data.
largest (>0.10) Wiberg bond orders for each atom

 ---------------------------------------------------------------------------
     #   Z sym  total        # sym  WBO       # sym  WBO       # sym  WBO
 ---------------------------------------------------------------------------
     1   7 N    3.263 --     7 C    1.147     2 C    0.987    59 N    0.853
                             9 C    0.162
     2   6 C    3.954 --     1 N    0.987    51 C    0.978    60 N    0.934
                             3 C    0.928
     3   6 C    3.863 --     4 C    1.689     5 N    1.176     2 C    0.928
     4   8 C    1.981 --     3 C    1.689     5 N    0.162
     5   7 N    3.287 --     3 C    1.176     6 C    0.983    61 N    0.868
                             4 C    0.162
     6   6 C    3.952 --    58 C    0.992     5 N    0.983    46 C    0.960
                            62 N    0.914
     7   6 C    3.861 --     9 C    1.717     1 N    1.147     8 C    0.927
     8   6 C    3.934 --    11 C    0.989    10 N    0.969     7 C    0.927
                            63 N    0.927
     9   8 C    2.001 --     7 C    1.717     1 N    0.162
    10   7 N    3.358 --    12 C    1.247     8 C    0.969    64 N    0.881
                            15 C    0.156
    11   6 C    3.950 --    13 C    1.001     8 C    0.989    66 N    0.954
                            65 N    0.953
    12   6 C    3.852 --    15 C    1.570    10 N    1.247    14 C    0.935
    13   6 C    3.929 --    11 C    1.001    68 N    0.965    67 N    0.964
                            16 C    0.841
    14   6 C    3.942 --    18 C    1.011    17 N    0.952    12 C    0.935
                            69 N    0.925
    15   8 C    1.884 --    12 C    1.570    10 N    0.156
    16   6 C    3.854 --    19 C    1.508    20 C    1.486    13 C    0.841
    17   7 N    3.354 --    21 C    1.372    14 C    0.952    70 N    0.713
                            24 C    0.175
    18   6 C    3.953 --    14 C    1.011    72 N    0.955    71 N    0.949
                            22 C    0.881
    19   8 C    1.794 --    16 C    1.508    20 C    0.194
    20   8 C    1.772 --    16 C    1.486    19 C    0.194
    21   6 C    3.884 --    24 C    1.536    17 N    1.372    23 C    0.904
    22   6 C    3.862 --    25 C    1.604    26 C    1.349    18 C    0.881
    23   6 C    3.925 --    28 C    0.997    27 N    0.949    73 N    0.936
                            21 C    0.904
    24   8 C    1.862 --    21 C    1.536    17 N    0.175
    25   8 C    1.888 --    22 C    1.604    26 C    0.188
    26   8 C    1.803 --    22 C    1.349    25 C    0.188    70 N    0.139
    27   7 N    3.342 --    29 C    1.262    23 C    0.949    74 N    0.885
                            32 C    0.159
    28   6 C    3.969 --    30 C    1.010    23 C    0.997    75 N    0.949
                            76 N    0.945
    29   6 C    3.872 --    32 C    1.624    27 N    1.262    31 C    0.915
    30   6 C    3.965 --    28 C    1.010    33 C    1.002    78 N    0.955
                            77 N    0.949
    31   6 C    3.926 --    35 C    0.986    34 N    0.950    79 N    0.939
                            29 C    0.915
    32   8 C    1.905 --    29 C    1.624    27 N    0.159
    33   6 C    3.962 --    30 C    1.002    36 C    0.979    81 N    0.966
                            80 N    0.958
    34   7 N    3.361 --    37 C    1.264    31 C    0.950    82 N    0.881
                            41 C    0.160
    35   6 C    3.948 --    38 C    1.016    31 C    0.986    84 N    0.947
                            83 N    0.919
    36   6 C    3.956 --    39 N    1.035    33 C    0.979    86 N    0.966
                            85 N    0.955
    37   6 C    3.874 --    41 C    1.581    34 N    1.264    40 C    0.945
    38   6 C    3.939 --    35 C    1.016    42 O    0.973    87 N    0.955
                            88 N    0.953
    39   7 N    2.953 --    36 C    1.035    90 N    0.938    89 N    0.913
    40   6 C    3.939 --    43 N    0.989    44 C    0.948    37 C    0.945
                            91 N    0.927
    41   8 C    1.884 --    37 C    1.581    34 N    0.160
    42  16 O    2.079 --    45 C    0.996    38 C    0.973
    43   7 N    3.269 --    46 C    1.122    40 C    0.989    92 N    0.896
                            49 C    0.153
    44   6 C    3.964 --    47 C    1.016    48 C    0.994    40 C    0.948
                            93 N    0.938
    45   6 C    3.926 --    42 O    0.996    94 N    0.972    96 N    0.972
                            95 N    0.962
    46   6 C    3.865 --    49 C    1.710    43 N    1.122     6 C    0.960
    47   6 C    3.961 --    44 C    1.016    98 N    0.973    97 N    0.968
                            99 N    0.963
    48   6 C    3.962 --    50 C    1.014    44 C    0.994   100 N    0.963
                           101 N    0.951
    49   8 C    1.980 --    46 C    1.710    43 N    0.153
    50   6 C    3.958 --    48 C    1.014   103 N    0.977   102 N    0.969
                           104 N    0.969
    51   6 C    3.956 --    52 C    1.010     2 C    0.978   106 N    0.952
                           105 N    0.947
    52   6 C    3.961 --    51 C    1.010    53 C    1.004   108 N    0.956
                           107 N    0.953
    53   6 C    3.922 --    52 C    1.004    54 N    0.965   110 N    0.957
                           109 N    0.949
    54   7 N    3.284 --    55 C    1.198    53 C    0.965   111 N    0.893
                            56 N    0.142
    55   6 C    3.937 --    56 N    1.640    54 N    1.198    57 N    1.068
    56   7 N    2.833 --    55 C    1.640   112 N    0.924    54 N    0.142
    57   7 N    3.042 --    55 C    1.068   114 N    0.917   113 N    0.916
    58   6 C    3.947 --     6 C    0.992   117 N    0.968   116 N    0.966
                           115 N    0.957
    59   1 N    0.913 --     1 N    0.853
    60   1 N    0.987 --     2 C    0.934
    61   1 N    0.910 --     5 N    0.868
    62   1 N    0.977 --     6 C    0.914
    63   1 N    0.986 --     8 C    0.927
    64   1 N    0.930 --    10 N    0.881
    65   1 N    0.987 --    11 C    0.953
    66   1 N    0.990 --    11 C    0.954
    67   1 N    0.995 --    13 C    0.964
    68   1 N    0.996 --    13 C    0.965
    69   1 N    0.986 --    14 C    0.925
    70   1 N    0.882 --    17 N    0.713    26 C    0.139
    71   1 N    0.992 --    18 C    0.949
    72   1 N    0.989 --    18 C    0.955
    73   1 N    0.985 --    23 C    0.936
    74   1 N    0.926 --    27 N    0.885
    75   1 N    0.990 --    28 C    0.949
    76   1 N    0.987 --    28 C    0.945
    77   1 N    0.991 --    30 C    0.949
    78   1 N    0.993 --    30 C    0.955
    79   1 N    0.989 --    31 C    0.939
    80   1 N    0.987 --    33 C    0.958
    81   1 N    0.995 --    33 C    0.966
    82   1 N    0.932 --    34 N    0.881
    83   1 N    0.979 --    35 C    0.919
    84   1 N    0.986 --    35 C    0.947
    85   1 N    0.996 --    36 C    0.955
    86   1 N    0.994 --    36 C    0.966
    87   1 N    0.989 --    38 C    0.955
    88   1 N    0.990 --    38 C    0.953
    89   1 N    0.936 --    39 N    0.913
    90   1 N    0.952 --    39 N    0.938
    91   1 N    0.985 --    40 C    0.927
    92   1 N    0.938 --    43 N    0.896
    93   1 N    0.984 --    44 C    0.938
    94   1 N    0.990 --    45 C    0.972
    95   1 N    0.986 --    45 C    0.962
    96   1 N    0.991 --    45 C    0.972
    97   1 N    0.993 --    47 C    0.968
    98   1 N    0.991 --    47 C    0.973
    99   1 N    0.994 --    47 C    0.963
   100   1 N    0.992 --    48 C    0.963
   101   1 N    0.989 --    48 C    0.951
   102   1 N    0.993 --    50 C    0.969
   103   1 N    0.992 --    50 C    0.977
   104   1 N    0.987 --    50 C    0.969
   105   1 N    0.982 --    51 C    0.947
   106   1 N    0.987 --    51 C    0.952
   107   1 N    0.993 --    52 C    0.953
   108   1 N    0.990 --    52 C    0.956
   109   1 N    0.991 --    53 C    0.949
   110   1 N    0.990 --    53 C    0.957
   111   1 N    0.929 --    54 N    0.893
   112   1 N    0.956 --    56 N    0.924
   113   1 N    0.939 --    57 N    0.916
   114   1 N    0.937 --    57 N    0.917
   115   1 N    0.982 --    58 C    0.957
   116   1 N    0.991 --    58 C    0.966
   117   1 N    0.991 --    58 C    0.968
 ---------------------------------------------------------------------------

Topologies differ in total number of bonds
Writing topology from bond orders to xtbtopo.mol

Atomic dipole moments (in atomic units):
---------------------------------------------------------
     #    Z                 x            y            z
---------------------------------------------------------
           total     1.845825    14.700898     0.818581
---------------------------------------------------------
         |total|    14.838920    37.716772 Debye


           -------------------------------------------------
          | TOTAL ENERGY            -3197.379271249094 Eh   |
          | GRADIENT NORM               0.427963178869 Eh/α |
           -------------------------------------------------

------------------------------------------------------------------------
 * finished run on 2026/05/23 at 13:01:55.696     
------------------------------------------------------------------------
 total:
 * wall-time:     0 d,  0 h,  0 min,  5.207 sec
 *  cpu-time:     0 d,  0 h,  0 min, 48.722 sec
 * ratio c/w:     9.357 speedup
 SCF:
 * wall-time:     0 d,  0 h,  0 min,  5.079 sec
 *  cpu-time:     0 d,  0 h,  0 min, 48.206 sec
 * ratio c/w:     9.491 speedup

normal termination of xtb
