      -----------------------------------------------------------      
     |                   =====================                   |     
     |                           x T B                           |     
     |                   =====================                   |     
     |                         S. Grimme                         |     
     |          Mulliken Center for Theoretical Chemistry        |     
     |                    University of Bonn                     |     
      -----------------------------------------------------------      

   * xtb version 6.7.1 (edcfbbe) compiled by 'albert@albert-system' on 2024-07-22

   xtb is free software: you can redistribute it and/or modify it under
   the terms of the GNU Lesser General Public License as published by
   the Free Software Foundation, either version 3 of the License, or
   (at your option) any later version.
   
   xtb is distributed in the hope that it will be useful,
   but WITHOUT ANY WARRANTY; without even the implied warranty of
   MERCHANTABILITY or FITNESS FOR A PARTICULAR PURPOSE.  See the
   GNU Lesser General Public License for more details.
   
   Cite this work as:
   * C. Bannwarth, E. Caldeweyher, S. Ehlert, A. Hansen, P. Pracht,
     J. Seibert, S. Spicher, S. Grimme, WIREs Comput. Mol. Sci., 2020, 11,
     e01493. DOI: 10.1002/wcms.1493
   
   for GFN2-xTB:
   * C. Bannwarth, S. Ehlert and S. Grimme., J. Chem. Theory Comput., 2019,
     15, 1652-1671. DOI: 10.1021/acs.jctc.8b01176
   for GFN1-xTB:
   * S. Grimme, C. Bannwarth, P. Shushkov, J. Chem. Theory Comput., 2017,
     13, 1989-2009. DOI: 10.1021/acs.jctc.7b00118
   for GFN0-xTB:
   * P. Pracht, E. Caldeweyher, S. Ehlert, S. Grimme, ChemRxiv, 2019, preprint.
     DOI: 10.26434/chemrxiv.8326202.v1
   for GFN-FF:
   * S. Spicher and S. Grimme, Angew. Chem. Int. Ed., 2020, 59, 15665-15673.
     DOI: 10.1002/anie.202004239
   
   for ALPB and GBSA implicit solvation:
   * S. Ehlert, M. Stahn, S. Spicher, S. Grimme, J. Chem. Theory Comput.,
     2021, 17, 4250-4261. DOI: 10.1021/acs.jctc.1c00471
   
   for ddCOSMO and CPCM-X implicit solvation:
   * M. Stahn, S. Ehlert, S. Grimme, J. Phys. Chem. A,
     2023, XX, XXXX-XXXX. DOI: 10.1021/acs.jpca.3c04382
   
   for DFT-D4:
   * E. Caldeweyher, C. Bannwarth and S. Grimme, J. Chem. Phys., 2017,
     147, 034112. DOI: 10.1063/1.4993215
   * E. Caldeweyher, S. Ehlert, A. Hansen, H. Neugebauer, S. Spicher,
     C. Bannwarth and S. Grimme, J. Chem. Phys., 2019, 150, 154122.
     DOI: 10.1063/1.5090222
   * E. Caldeweyher, J.-M. Mewes, S. Ehlert and S. Grimme, Phys. Chem. Chem. Phys.
     2020, 22, 8499-8512. DOI: 10.1039/D0CP00502A
   
   for sTDA-xTB:
   * S. Grimme and C. Bannwarth, J. Chem. Phys., 2016, 145, 054103.
     DOI: 10.1063/1.4959605
   
   in the mass-spec context:
   * V. Asgeirsson, C. Bauer and S. Grimme, Chem. Sci., 2017, 8, 4879.
     DOI: 10.1039/c7sc00601b
   * J. Koopman and S. Grimme, ACS Omega 2019, 4, 12, 15120-15133.
     DOI: 10.1021/acsomega.9b02011
   
   for metadynamics refer to:
   * S. Grimme, J. Chem. Theory Comput., 2019, 155, 2847-2862
     DOI: 10.1021/acs.jctc.9b00143
   
   for SPH calculations refer to:
   * S. Spicher and S. Grimme, J. Chem. Theory Comput., 2021, 17, 1701-1714
     DOI: 10.1021/acs.jctc.0c01306
   
   for ONIOM refer to:
   * C. Plett, A. Katbashev, S. Ehlert, S. Grimme, M. Bursch,
     Phys. Chem. Chem. Phys., 2023, 25, 17860-17868. DOI: 10.1039/D3CP02178E
   
   for DIPRO refer to:
   * J. Kohn, N. Gildemeister, S. Grimme, D. Fazzi, A. Hansen,
     J. Chem. Phys., 2023, just accepted.
   
   for PTB refer to:
   * S. Grimme, M. Mueller, A. Hansen, J. Chem. Phys., 2023, 158, 124111.
     DOI: 10.1063/5.0137838
   
   with help from (in alphabetical order)
   P. Atkinson, C. Bannwarth, F. Bohle, G. Brandenburg, E. Caldeweyher
   M. Checinski, S. Dohm, S. Ehlert, S. Ehrlich, I. Gerasimov, C. Hölzer
   A. Katbashev, J. Kohn, J. Koopman, C. Lavigne, S. Lehtola, F. März, M. Müller,
   F. Musil, H. Neugebauer, J. Pisarek, C. Plett, P. Pracht, F. Pultar,
   J. Seibert, P. Shushkov, S. Spicher, M. Stahn, M. Steiner, T. Strunk,
   J. Stückrath, T. Rose, and J. Unsleber
   
 * started run on 2026/05/23 at 12:44:27.913     
   ID    Z sym.   atoms
    1    7 N      1, 5, 13, 19, 23, 28, 35
    2    6 C      2, 3, 6-10, 12, 14, 15, 17, 20, 21, 24-26, 29, 30, 32, 33,
                  36, 37, 39, 41-44
    3    8 O      4, 11, 18, 22, 27, 31, 34, 38, 40
    4   16 S      16
    5    1 H      45-89

           -------------------------------------------------
          |                Calculation Setup                |
           -------------------------------------------------

          program call               : /home/xchen/software/xtb-6.7.1/xtb-dist/bin/xtb /home/xchen/Test/benchmark/md_sampled/06_7_0793_0/snap_0147.xyz --charge 0 --gfn 2 --norestart
          coordinate file            : /home/xchen/Test/benchmark/md_sampled/06_7_0793_0/snap_0147.xyz
          omp threads                :                    48


           -------------------------------------------------
          |                 G F N 2 - x T B                 |
           -------------------------------------------------

        Reference                      10.1021/acs.jctc.8b01176
      * Hamiltonian:
        H0-scaling (s, p, d)           1.850000    2.230000    2.230000
        zeta-weighting                 0.500000
      * Dispersion:
        s8                             2.700000
        a1                             0.520000
        a2                             5.000000
        s9                             5.000000
      * Repulsion:
        kExp                           1.500000    1.000000
        rExp                           1.000000
      * Coulomb:
        alpha                          2.000000
        third order                    shell-resolved
        anisotropic                    true
        a3                             3.000000
        a5                             4.000000
        cn-shift                       1.200000
        cn-exp                         4.000000
        max-rad                        5.000000


          ...................................................
          :                      SETUP                      :
          :.................................................:
          :  # basis functions                 227          :
          :  # atomic orbitals                 226          :
          :  # shells                          134          :
          :  # electrons                       248          :
          :  max. iterations                   250          :
          :  Hamiltonian                  GFN2-xTB          :
          :  restarted?                      false          :
          :  GBSA solvation                  false          :
          :  PC potential                    false          :
          :  electronic temp.          300.0000000     K    :
          :  accuracy                    1.0000000          :
          :  -> integral cutoff          0.2500000E+02      :
          :  -> integral neglect         0.1000000E-07      :
          :  -> SCF convergence          0.1000000E-05 Eh   :
          :  -> wf. convergence          0.1000000E-03 e    :
          :  Broyden damping             0.4000000          :
          :  net charge                          0          :
          :  unpaired electrons                  0          :
          ...................................................

 iter      E             dE          RMSdq      gap      omega  full diag
   1   -142.1692418 -0.142169E+03  0.422E+00    3.99       0.0  T
   2   -142.5488003 -0.379559E+00  0.229E+00    3.11       1.0  T
   3   -142.5656214 -0.168211E-01  0.120E+00    3.52       1.0  T
   4   -142.5705551 -0.493364E-02  0.207E-01    3.28       1.0  T
   5   -142.5720508 -0.149578E-02  0.111E-01    3.37       1.0  T
   6   -142.5721822 -0.131352E-03  0.344E-02    3.37       1.0  T
   7   -142.5721928 -0.106532E-04  0.151E-02    3.36       1.0  T
   8   -142.5721961 -0.330362E-05  0.624E-03    3.36       1.7  T
   9   -142.5721967 -0.531235E-06  0.182E-03    3.36       5.8  T
  10   -142.5721967 -0.293342E-07  0.850E-04    3.36      12.5  T
  11   -142.5721967 -0.108803E-07  0.233E-04    3.36      45.6  T

   *** convergence criteria satisfied after 11 iterations ***

         #    Occupation            Energy/Eh            Energy/eV
      -------------------------------------------------------------
         1        2.0000           -0.7337316             -19.9659
       ...           ...                  ...                  ...
       118        2.0000           -0.4082303             -11.1085
       119        2.0000           -0.4048937             -11.0177
       120        2.0000           -0.4020556             -10.9405
       121        2.0000           -0.4000616             -10.8862
       122        2.0000           -0.3986794             -10.8486
       123        2.0000           -0.3791776             -10.3179
       124        2.0000           -0.3785095             -10.2998 (HOMO)
       125                         -0.2550061              -6.9391 (LUMO)
       126                         -0.2485199              -6.7626
       127                         -0.2442773              -6.6471
       128                         -0.2303566              -6.2683
       129                         -0.2209703              -6.0129
       ...                                ...                  ...
       226                          0.6808096              18.5258
      -------------------------------------------------------------
                  HL-Gap            0.1235034 Eh            3.3607 eV
             Fermi-level           -0.3167578 Eh           -8.6194 eV

 SCC (total)                   0 d,  0 h,  0 min, 14.950 sec
 SCC setup                      ...        0 min,  0.049 sec (  0.331%)
 Dispersion                     ...        0 min,  0.101 sec (  0.677%)
 classical contributions        ...        0 min,  0.009 sec (  0.060%)
 integral evaluation            ...        0 min,  0.425 sec (  2.842%)
 iterations                     ...        0 min, 13.621 sec ( 91.111%)
 molecular gradient             ...        0 min,  0.732 sec (  4.895%)
 printout                       ...        0 min,  0.012 sec (  0.083%)

         :::::::::::::::::::::::::::::::::::::::::::::::::::::
         ::                     SUMMARY                     ::
         :::::::::::::::::::::::::::::::::::::::::::::::::::::
         :: total energy            -141.053661210584 Eh    ::
         :: gradient norm              0.334323238104 Eh/a0 ::
         :: HOMO-LUMO gap              3.360697260435 eV    ::
         ::.................................................::
         :: SCC energy              -142.566810190894 Eh    ::
         :: -> isotropic ES            0.323275935044 Eh    ::
         :: -> anisotropic ES          0.005529909378 Eh    ::
         :: -> anisotropic XC          0.038328752242 Eh    ::
         :: -> dispersion             -0.105750620789 Eh    ::
         :: repulsion energy           1.513148980311 Eh    ::
         :: add. restraining           0.000000000000 Eh    ::
         :: total charge              -0.000000000000 e     ::
         :::::::::::::::::::::::::::::::::::::::::::::::::::::

           -------------------------------------------------
          |                Property Printout                |
           -------------------------------------------------

    * Orbital Energies and Occupations

         #    Occupation            Energy/Eh            Energy/eV
      -------------------------------------------------------------
         1        2.0000           -0.7337316             -19.9659
       ...           ...                  ...                  ...
       112        2.0000           -0.4302029             -11.7064
       113        2.0000           -0.4276000             -11.6356
       114        2.0000           -0.4234619             -11.5230
       115        2.0000           -0.4173492             -11.3566
       116        2.0000           -0.4096709             -11.1477
       117        2.0000           -0.4084696             -11.1150
       118        2.0000           -0.4082303             -11.1085
       119        2.0000           -0.4048937             -11.0177
       120        2.0000           -0.4020556             -10.9405
       121        2.0000           -0.4000616             -10.8862
       122        2.0000           -0.3986794             -10.8486
       123        2.0000           -0.3791776             -10.3179
       124        2.0000           -0.3785095             -10.2998 (HOMO)
       125                         -0.2550061              -6.9391 (LUMO)
       126                         -0.2485199              -6.7626
       127                         -0.2442773              -6.6471
       128                         -0.2303566              -6.2683
       129                         -0.2209703              -6.0129
       130                         -0.2150443              -5.8517
       131                         -0.2138266              -5.8185
       132                         -0.2045841              -5.5670
       133                         -0.1369958              -3.7278
       134                         -0.1038934              -2.8271
       135                         -0.0569665              -1.5501
       ...                                ...                  ...
       226                          0.6808096              18.5258
      -------------------------------------------------------------
                  HL-Gap            0.1235034 Eh            3.3607 eV
             Fermi-level           -0.3167578 Eh           -8.6194 eV

     #   Z          covCN         q      C6AA      α(0)
     1   7 N        2.731    -0.140    24.024     7.280
     2   6 C        3.843     0.018    20.240     6.400
     3   6 C        2.758     0.279    22.282     7.730
     4   8 O        0.862    -0.445    22.608     6.375
     5   7 N        2.709    -0.164    24.539     7.357
     6   6 C        3.802     0.025    20.153     6.391
     7   6 C        3.758     0.009    20.475     6.451
     8   6 C        2.737     0.249    22.823     7.822
     9   6 C        3.812    -0.066    21.749     6.638
    10   6 C        3.785     0.029    20.102     6.386
    11   8 O        0.859    -0.406    21.797     6.260
    12   6 C        3.816    -0.065    21.737     6.636
    13   7 N        2.683    -0.181    24.912     7.413
    14   6 C        3.808    -0.017    20.870     6.503
    15   6 C        2.746     0.264    22.555     7.776
    16  16 S        1.908    -0.290   153.588    20.859
    17   6 C        3.746    -0.032    21.206     6.569
    18   8 O        0.857    -0.425    22.189     6.316
    19   7 N        2.682    -0.190    25.122     7.444
    20   6 C        2.822     0.267    22.501     7.772
    21   6 C        3.808     0.040    19.896     6.350
    22   8 O        0.863    -0.442    22.545     6.366
    23   7 N        2.682    -0.139    24.002     7.276
    24   6 C        3.820    -0.129    22.958     6.819
    25   6 C        2.754     0.263    22.560     7.778
    26   6 C        3.795     0.005    20.496     6.447
    27   8 O        0.859    -0.462    22.952     6.423
    28   7 N        2.685    -0.209    25.555     7.508
    29   6 C        3.706     0.100    19.070     6.242
    30   6 C        2.776     0.277    22.321     7.738
    31   8 O        1.654    -0.445    21.751     6.296
    32   6 C        3.728    -0.131    23.126     6.866
    33   6 C        3.799     0.016    20.315     6.418
    34   8 O        0.862    -0.430    22.287     6.330
    35   7 N        2.704    -0.163    24.518     7.354
    36   6 C        3.707     0.101    19.056     6.240
    37   6 C        2.751     0.268    22.474     7.763
    38   8 O        1.654    -0.477    22.411     6.391
    39   6 C        3.735    -0.120    22.887     6.828
    40   8 O        0.858    -0.466    23.042     6.436
    41   6 C        3.857    -0.018    20.852     6.494
    42   6 C        3.717    -0.093    22.395     6.760
    43   6 C        3.767    -0.041    21.355     6.586
    44   6 C        3.735    -0.098    22.464     6.764
    45   1 H        0.924     0.090     1.881     2.145
    46   1 H        0.859     0.179     1.220     1.730
    47   1 H        0.920     0.093     1.853     2.129
    48   1 H        0.921     0.059     2.211     2.325
    49   1 H        0.916     0.035     2.522     2.484
    50   1 H        0.926     0.055     2.254     2.348
    51   1 H        0.923     0.052     2.295     2.369
    52   1 H        0.924     0.069     2.094     2.263
    53   1 H        0.924     0.070     2.087     2.259
    54   1 H        0.928     0.060     2.196     2.317
    55   1 H        0.854     0.206     1.075     1.625
    56   1 H        0.927     0.082     1.963     2.191
    57   1 H        0.929     0.062     2.175     2.306
    58   1 H        0.925     0.180     1.205     1.717
    59   1 H        0.927     0.083     1.947     2.182
    60   1 H        0.919     0.094     1.839     2.121
    61   1 H        0.861     0.178     1.223     1.732
    62   1 H        0.925     0.076     2.024     2.225
    63   1 H        0.856     0.202     1.097     1.641
    64   1 H        0.929     0.117     1.641     2.003
    65   1 H        0.926     0.050     2.321     2.382
    66   1 H        0.925     0.053     2.284     2.363
    67   1 H        0.925     0.112     1.683     2.029
    68   1 H        0.860     0.205     1.080     1.628
    69   1 H        0.921     0.050     2.321     2.383
    70   1 H        0.807     0.319     0.665     1.281
    71   1 H        0.927     0.051     2.308     2.376
    72   1 H        0.914     0.044     2.403     2.425
    73   1 H        0.924     0.051     2.308     2.376
    74   1 H        0.918     0.061     2.192     2.315
    75   1 H        0.858     0.193     1.141     1.673
    76   1 H        0.911     0.037     2.496     2.471
    77   1 H        0.808     0.330     0.638     1.254
    78   1 H        0.902     0.054     2.271     2.358
    79   1 H        0.926     0.070     2.087     2.259
    80   1 H        0.924     0.044     2.394     2.420
    81   1 H        0.925     0.052     2.298     2.370
    82   1 H        0.898     0.033     2.556     2.502
    83   1 H        0.917     0.034     2.536     2.490
    84   1 H        0.921     0.035     2.521     2.483
    85   1 H        0.923     0.038     2.482     2.464
    86   1 H        0.886     0.010     2.908     2.669
    87   1 H        0.911     0.032     2.563     2.504
    88   1 H        0.919     0.027     2.628     2.535
    89   1 H        0.928     0.050     2.320     2.382

 Mol. C6AA /au·bohr⁶  :      76704.123160
 Mol. C8AA /au·bohr⁸  :    1766052.043572
 Mol. α(0) /au        :        413.353576


Wiberg/Mayer (AO) data.
largest (>0.10) Wiberg bond orders for each atom

 ---------------------------------------------------------------------------
     #   Z sym  total        # sym  WBO       # sym  WBO       # sym  WBO
 ---------------------------------------------------------------------------
     1   7 N    3.460 --     8 C    1.218     7 C    0.990     2 C    0.927
                            11 O    0.193
     2   6 C    3.957 --     3 C    0.978    12 C    0.977    45 H    0.942
                             1 N    0.927
     3   6 C    3.961 --     4 O    1.646     5 N    1.277     2 C    0.978
     4   8 O    1.977 --     3 C    1.646     5 N    0.203
     5   7 N    3.470 --     3 C    1.277     6 C    0.989    46 H    0.902
                             4 O    0.203
     6   6 C    3.971 --     5 N    0.989    41 C    0.980    37 C    0.949
                            47 H    0.924
     7   6 C    3.967 --     9 C    1.002     1 N    0.990    48 H    0.965
                            49 H    0.959
     8   6 C    3.938 --    11 O    1.731     1 N    1.218    10 C    0.855
     9   6 C    3.992 --     7 C    1.002    12 C    0.997    50 H    0.979
                            51 H    0.976
    10   6 C    3.973 --    13 N    1.022    14 C    0.998    52 H    0.953
                             8 C    0.855
    11   8 O    2.069 --     8 C    1.731     1 N    0.193
    12   6 C    3.989 --     9 C    0.997    54 H    0.980    53 H    0.977
                             2 C    0.977
    13   7 N    3.449 --    15 C    1.239    10 C    1.022    55 H    0.903
                            18 O    0.196
    14   6 C    3.976 --    10 C    0.998    56 H    0.971    16 S    0.971
                            57 H    0.970
    15   6 C    3.950 --    18 O    1.697    13 N    1.239    17 C    0.946
    16  16 S    1.987 --    14 C    0.971    58 H    0.953
    17   6 C    3.953 --    19 N    0.991    59 H    0.964    15 C    0.946
                            60 H    0.940
    18   8 O    2.015 --    15 C    1.697    13 N    0.196
    19   7 N    3.400 --    20 C    1.204    17 C    0.991    61 H    0.938
                            22 O    0.183
    20   6 C    3.949 --    22 O    1.662    19 N    1.204    21 C    0.983
    21   6 C    3.972 --    23 N    0.990    20 C    0.983    24 C    0.961
                            62 H    0.937
    22   8 O    2.005 --    20 C    1.662    19 N    0.183
    23   7 N    3.491 --    25 C    1.326    21 C    0.990    63 H    0.907
                            27 O    0.196
    24   6 C    3.977 --    66 H    0.981    65 H    0.978    21 C    0.961
                            64 H    0.958
    25   6 C    3.956 --    27 O    1.608    23 N    1.326    26 C    0.940
    26   6 C    3.956 --    28 N    0.979    29 C    0.956    25 C    0.940
                            67 H    0.939
    27   8 O    1.968 --    25 C    1.608    23 N    0.196
    28   7 N    3.434 --    30 C    1.254    26 C    0.979    68 H    0.904
                            34 O    0.201
    29   6 C    3.959 --    31 O    1.006    32 C    0.982    69 H    0.965
                            26 C    0.956
    30   6 C    3.957 --    34 O    1.696    28 N    1.254    33 C    0.930
    31   8 O    1.959 --    29 C    1.006    70 H    0.863
    32   6 C    3.985 --    72 H    0.984    73 H    0.984    71 H    0.983
                            29 C    0.982
    33   6 C    3.964 --    35 N    0.978    36 C    0.972    74 H    0.946
                            30 C    0.930
    34   8 O    2.017 --    30 C    1.696    28 N    0.201
    35   7 N    3.427 --    37 C    1.265    33 C    0.978    75 H    0.925
                            40 O    0.177
    36   6 C    3.958 --    39 C    0.996    38 O    0.987    33 C    0.972
                            76 H    0.961
    37   6 C    3.945 --    40 O    1.635    35 N    1.265     6 C    0.949
    38   8 O    1.958 --    36 C    0.987    77 H    0.843
    39   6 C    3.988 --    36 C    0.996    80 H    0.985    79 H    0.984
                            78 H    0.977
    40   8 O    1.977 --    37 C    1.635    35 N    0.177
    41   6 C    3.992 --    42 C    1.001    43 C    0.986     6 C    0.980
                            81 H    0.956
    42   6 C    3.988 --    41 C    1.001    84 H    0.984    83 H    0.984
                            82 H    0.981
    43   6 C    3.994 --    44 C    1.024    41 C    0.986    85 H    0.973
                            86 H    0.970
    44   6 C    3.992 --    43 C    1.024    88 H    0.985    89 H    0.984
                            87 H    0.983
    45   1 H    0.992 --     2 C    0.942
    46   1 H    0.968 --     5 N    0.902
    47   1 H    0.991 --     6 C    0.924
    48   1 H    0.996 --     7 C    0.965
    49   1 H    0.999 --     7 C    0.959
    50   1 H    0.997 --     9 C    0.979
    51   1 H    0.996 --     9 C    0.976
    52   1 H    0.995 --    10 C    0.953
    53   1 H    0.994 --    12 C    0.977
    54   1 H    0.996 --    12 C    0.980
    55   1 H    0.957 --    13 N    0.903
    56   1 H    0.993 --    14 C    0.971
    57   1 H    0.996 --    14 C    0.970
    58   1 H    0.967 --    16 S    0.953
    59   1 H    0.993 --    17 C    0.964
    60   1 H    0.991 --    17 C    0.940
    61   1 H    0.968 --    19 N    0.938
    62   1 H    0.994 --    21 C    0.937
    63   1 H    0.959 --    23 N    0.907
    64   1 H    0.986 --    24 C    0.958
    65   1 H    0.997 --    24 C    0.978
    66   1 H    0.997 --    24 C    0.981
    67   1 H    0.987 --    26 C    0.939
    68   1 H    0.958 --    28 N    0.904
    69   1 H    0.997 --    29 C    0.965
    70   1 H    0.898 --    31 O    0.863
    71   1 H    0.997 --    32 C    0.983
    72   1 H    0.998 --    32 C    0.984
    73   1 H    0.997 --    32 C    0.984
    74   1 H    0.996 --    33 C    0.946
    75   1 H    0.963 --    35 N    0.925
    76   1 H    0.998 --    36 C    0.961
    77   1 H    0.891 --    38 O    0.843
    78   1 H    0.997 --    39 C    0.977
    79   1 H    0.995 --    39 C    0.984
    80   1 H    0.998 --    39 C    0.985
    81   1 H    0.997 --    41 C    0.956
    82   1 H    0.999 --    42 C    0.981
    83   1 H    0.998 --    42 C    0.984
    84   1 H    0.999 --    42 C    0.984
    85   1 H    0.999 --    43 C    0.973
    86   1 H    1.000 --    43 C    0.970
    87   1 H    0.998 --    44 C    0.983
    88   1 H    0.999 --    44 C    0.985
    89   1 H    0.997 --    44 C    0.984
 ---------------------------------------------------------------------------

Topologies differ in total number of bonds
Writing topology from bond orders to xtbtopo.mol

molecular dipole:
                 x           y           z       tot (Debye)
 q only:        2.519      -0.780       1.245
   full:        2.835      -0.614       1.267       8.046
molecular quadrupole (traceless):
                xx          xy          yy          xz          yz          zz
 q only:       10.973     -11.571      23.111     -29.753     -21.975     -34.084
  q+dip:        8.062     -10.582      35.134     -41.828     -22.339     -43.196
   full:        7.914     -12.543      34.287     -40.633     -23.050     -42.202


           -------------------------------------------------
          | TOTAL ENERGY             -141.053661210584 Eh   |
          | GRADIENT NORM               0.334323238104 Eh/α |
          | HOMO-LUMO GAP               3.360697260435 eV   |
           -------------------------------------------------

------------------------------------------------------------------------
 * finished run on 2026/05/23 at 12:44:43.487     
------------------------------------------------------------------------
 total:
 * wall-time:     0 d,  0 h,  0 min, 15.573 sec
 *  cpu-time:     0 d,  0 h,  0 min, 17.975 sec
 * ratio c/w:     1.154 speedup
 SCF:
 * wall-time:     0 d,  0 h,  0 min, 14.951 sec
 *  cpu-time:     0 d,  0 h,  0 min, 17.443 sec
 * ratio c/w:     1.167 speedup

normal termination of xtb
