96
pH=5.78 total_charge=0 partial_charge_sum=-0.000000 method=gasteiger energy=-483.16060200
N   3.09610085  0.19655330  1.78003005
C   3.31513623  1.53113993  1.38758583
C   2.20472961  2.27734609  0.63879553
O   1.88159024  3.41549401  1.01144173
N   1.61118919  1.62464157 -0.36003397
C   0.75171809  2.20097106 -1.36681691
C   2.06134990 -0.06136407  2.61201065
C   1.63433905 -1.52917849  2.76911835
O   1.38839265  0.78523091  3.17493979
N   1.00179978 -1.88272834  1.55004145
C   2.90129104 -2.47863978  3.11298943
C   0.62865850 -3.19528229  1.47802023
C   3.63952823 -3.02042603  1.91835684
C  -0.33710928 -3.50028226  0.38363742
O   1.15499073 -4.20969298  1.98784959
N   3.89614799 -2.31506883  0.81090428
C   4.45289171 -4.22905949  1.86861101
N  -1.34783498 -2.52812732 -0.08673301
C   0.62055998 -3.69754063 -0.95427503
C   4.92444272 -2.89936850  0.17959709
N   5.27525188 -4.02915044  0.75282804
C  -1.10169487 -2.20854513 -1.48192028
C  -2.52219491 -2.33198353  0.56820250
C  -0.36884210 -3.36302554 -2.06781549
C  -3.52130782 -1.14311552  0.22298516
O  -2.77425006 -3.03862284  1.54968789
N  -2.77296930  0.10514334  0.10141528
C  -4.51987818 -1.29906823 -0.94303137
C  -2.80368642  0.97356844  1.15551929
C  -5.67151167 -0.30588250 -1.04899278
C  -2.35486568  2.39207566  0.88714799
O  -3.12733025  0.67171270  2.25486245
S  -7.17676707 -0.56079615  0.01204948
N  -1.01166767  2.38215073  0.19747564
C  -3.23144873  3.41663078  0.34639339
C  -6.75273550 -1.80684516  1.24710016
C  -0.78452230  2.09746195 -1.10019762
C  -4.57726376  3.21826059  0.96481508
O  -1.59017734  1.64697556 -1.90033639
C  -5.65436015  4.01713880  0.20142748
O  -5.35830066  5.17509793  0.01871500
N  -6.77933678  3.28521991 -0.17228716
C   4.68443789  1.46673512  0.61404583
C   5.16074739  2.82754020  0.20050902
S   6.15145015  2.76374422 -1.30056642
C   7.56490101  1.70771394 -0.75613613
C   1.00899412  1.62800912 -2.66606551
C   2.35666469  1.97330747 -3.30929313
O   2.72596078  3.12676958 -3.23433152
N   3.17558070  0.98519857 -3.78400840
H   3.21770559 -0.57060221  1.10356154
H   3.41378210  2.13908352  2.29310333
H   1.96711194  0.68727613 -0.58572452
H   1.07917617  3.18101346 -1.37672496
H   0.89035781 -1.63334310  3.62098503
H   0.12526629 -1.42869994  1.34992069
H   3.63780361 -1.91545154  3.59003042
H   2.38848651 -3.19118012  3.79676074
H  -0.84715476 -4.47248319  0.58261940
H   4.80804688 -5.01104053  2.52808583
H   1.02154808 -4.70478084 -1.01573209
H   1.26578024 -2.86586937 -0.85640551
H   5.30835287 -2.51408708 -0.69437608
H   5.90941956 -4.72680206  0.34428389
H  -2.04286266 -1.94133763 -1.93977785
H  -0.48299934 -1.28499060 -1.76245127
H  -0.94003766 -4.33197489 -2.27749024
H   0.14216412 -2.93454885 -2.86396100
H  -4.16414144 -0.98974508  1.08252799
H  -2.61669176  0.48184068 -0.78192006
H  -4.85385841 -2.37981673 -0.92789676
H  -3.99307137 -1.21897623 -2.01286983
H  -5.19684671  0.73124537 -0.89279922
H  -6.04104243 -0.35697956 -2.11801664
H  -2.02251624  2.66805246  1.84448542
H  -0.25786022  3.00607378  0.52486775
H  -3.25322771  3.40502917 -0.84916456
H  -2.74165018  4.34177335  0.64410307
H  -7.09040205 -2.70530515  0.84359045
H  -7.14531486 -1.61907586  2.28953711
H  -5.69674237 -1.74357525  1.26349273
H  -4.54605204  3.57077091  1.98284608
H  -4.76955783  2.15398490  0.84878513
H  -7.63416451  3.96384956 -0.24618099
H  -6.97726783  2.41583061  0.46158097
H   5.49509953  0.96345732  1.25018233
H   4.47738109  0.94088909 -0.31646638
H   4.25523079  3.28191032 -0.13605763
H   5.63439732  3.33587789  1.04710811
H   8.13080104  2.08759466  0.10668391
H   8.29600348  1.61354412 -1.63951342
H   7.07475971  0.73935295 -0.56686365
H   0.93896348  0.50852942 -2.54880096
H   0.15301247  1.88971666 -3.35931415
H   3.89660436  1.31761686 -4.40550610
H   2.75883141  0.06376859 -4.01864217
