96
pH=5.78 total_charge=0 partial_charge_sum=-0.000000 method=gasteiger energy=-482.48091450
N   2.82073119 -0.12918425  1.06214166
C   3.31360041  1.26723980  1.00036724
C   2.22220150  2.26157287  0.57839444
O   2.07548317  3.36716333  0.99753992
N   1.50092245  1.88164990 -0.53904387
C   0.67307538  2.96580165 -1.04034680
C   1.83775784 -0.31920528  2.09758590
C   1.60046613 -1.74455483  2.85330878
O   1.12613942  0.57173172  2.47313085
N   0.55500042 -2.41198863  2.04768214
C   2.92010041 -2.47015000  2.96048828
C   0.52317431 -3.62816199  1.47409092
C   3.82561056 -2.72106393  1.75364910
C  -0.36726394 -3.74904519  0.33065556
O   1.12014029 -4.58091080  1.99369329
N   4.97374679 -2.01127946  1.50853046
C   3.82273639 -3.87775711  0.90473285
N  -1.04674710 -2.43703659 -0.03465146
C   0.43634911 -4.09053199 -0.89938959
C   5.60112193 -2.67211727  0.51131281
N   4.86229589 -3.75815742  0.07803579
C  -0.72309566 -1.97853845 -1.32107394
C  -2.43097764 -2.33181215  0.51167334
C   0.50736278 -2.79656814 -1.80517803
C  -3.42041996 -1.19684518  0.41938789
O  -2.72160154 -3.16454425  1.30191881
N  -2.81554931  0.15354184  0.32581457
C  -4.21820712 -1.41373273 -0.99548454
C  -2.62040415  0.86349527  1.51173327
C  -5.41292303 -0.48565045 -1.12056323
C  -2.34157739  2.36897334  1.33507320
O  -2.69840734  0.32124478  2.59948217
S  -6.89922511 -0.90974167 -0.09780795
N  -1.10308601  2.54046018  0.61736448
C  -3.57449912  3.10261344  0.52207554
C  -7.49284003 -2.55828477 -0.74499460
C  -0.87719420  2.74475001 -0.67042780
C  -4.82346060  3.01386088  1.42952546
O  -1.69496903  2.91792632 -1.53799892
C  -6.15760485  3.66089725  0.82424241
O  -6.14544370  4.72101147  0.23287141
N  -7.19092068  2.85148048  1.08658657
C   4.33846471  1.25522223 -0.13109142
C   5.31755674  2.40030112 -0.31954575
S   6.59537886  2.23923727 -1.57258153
C   8.05273650  1.70165463 -0.57468035
C   0.79434173  2.95973130 -2.65597587
C   2.21810860  3.03786755 -3.00450474
O   3.04691088  3.86832976 -2.60234238
N   2.60541866  1.88631129 -3.63878060
H   3.71687487 -0.61650711  1.19606418
H   3.68448524  1.70153733  1.99801112
H   1.12325430  0.95449522 -0.66805740
H   1.00425816  3.91528207 -0.63153407
H   1.08510433 -1.54305299  3.78618101
H  -0.08029864 -1.80593917  1.56999324
H   3.59729638 -1.67721504  3.46613122
H   2.70506648 -3.31202455  3.51212989
H  -1.21489898 -4.39865216  0.58146223
H   3.04620682 -4.66375094  1.02405484
H  -0.15837691 -4.77799696 -1.38812921
H   1.29009781 -4.61318372 -0.61607790
H   6.47113767 -2.25593490  0.01066119
H   5.25115512 -4.59715782 -0.28098405
H  -1.46378404 -2.19709410 -2.05920167
H  -0.63290997 -0.90603014 -1.42628964
H   0.41787810 -3.13954631 -2.84417369
H   1.54845119 -2.40537371 -1.51885916
H  -3.98607286 -1.41508435  1.32420315
H  -2.74272257  0.47733545 -0.60557865
H  -4.41645181 -2.44629300 -0.98898350
H  -3.56208263 -1.35718891 -1.91484482
H  -5.16222561  0.54533822 -0.95079786
H  -5.78850982 -0.36571174 -2.16284183
H  -2.35500525  2.74844477  2.29330515
H  -0.23532348  2.53280486  1.15506286
H  -3.69917113  2.42662941 -0.37520617
H  -3.34489667  4.11837650  0.18187973
H  -8.54462802 -2.36628960 -0.50990683
H  -7.14413282 -3.38401789 -0.21664755
H  -7.46517771 -2.49777224 -1.85801048
H  -4.55315943  3.52277365  2.42295464
H  -5.12960925  1.97949403  1.56135472
H  -8.10488066  3.22084355  0.84007263
H  -7.10758778  1.83125543  1.28467345
H   5.02615068  0.44146591  0.12162091
H   3.79054638  0.94234271 -1.03854769
H   4.74640703  3.27731363 -0.57282564
H   5.84500959  2.61696211  0.63694513
H   8.78406435  1.36456736 -1.38270199
H   7.87030349  0.84365110  0.04566207
H   8.43912425  2.63829633 -0.17457474
H   0.37054259  2.02025719 -2.90499985
H   0.26954760  3.66396887 -3.12645770
H   3.57184172  1.74973547 -3.75880065
H   1.93281508  1.39177271 -4.20703211
