96
pH=5.78 total_charge=0 partial_charge_sum=-0.000000 method=gasteiger energy=-482.39497700
N   2.98546598  0.14406734  1.58411754
C   3.32452151  1.53335543  1.40009256
C   2.23932289  2.34116841  0.70920533
O   1.90906161  3.47996383  1.13686962
N   1.78094091  1.71658748 -0.40796841
C   0.90085423  2.34405628 -1.36111491
C   2.00712632 -0.13132619  2.54886158
C   1.77591525 -1.63728248  2.92381408
O   1.39725733  0.78883015  3.11472814
N   0.72615830 -2.00012915  1.77406816
C   3.04586142 -2.44183796  3.06918425
C   0.47752778 -3.32563077  1.46682850
C   3.91101542 -2.91583344  1.96273354
C  -0.34074465 -3.54742435  0.28094594
O   0.98803561 -4.30464591  2.08921193
N   4.07529825 -2.27822361  0.66984632
C   4.56408482 -4.07101098  1.86635350
N  -1.28144743 -2.47308721 -0.12390728
C   0.72513897 -3.48548741 -0.95693265
C   4.88085959 -3.06227661 -0.00143103
N   5.12827778 -4.21430354  0.62973050
C  -1.14560333 -2.08605881 -1.59001359
C  -2.55258204 -2.34222317  0.51723934
C  -0.19391906 -3.16637062 -2.13798218
C  -3.53796358 -1.18500246  0.13512782
O  -2.84378077 -3.07797909  1.46749358
N  -2.85716673  0.06033997 -0.06651183
C  -4.56243440 -1.63214409 -0.89274425
C  -2.77505287  0.88104875  1.02370542
C  -5.61429913 -0.47103733 -0.82775838
C  -2.13389648  2.33583481  0.93597189
O  -3.21630245  0.55570245  2.10874183
S  -7.14786975 -0.56311059  0.14480433
N  -0.89945414  2.61127718  0.30502860
C  -3.18042125  3.27514528  0.47532550
C  -7.07799311 -2.10775710  1.09143961
C  -0.53338378  2.19750853 -1.01345691
C  -4.58494801  3.19299355  0.90043143
O  -1.37321235  1.68528207 -1.70339795
C  -5.60663558  4.08111046  0.20428990
O  -5.56667210  5.27131206 -0.03132250
N  -6.87030655  3.49991420 -0.16176520
C   4.61751051  1.57986105  0.55966421
C   4.95166700  2.99617972 -0.06468850
S   6.07193384  2.84172579 -1.48390770
C   7.25177170  1.67727266 -0.72718696
C   1.02356110  1.69967528 -2.72312262
C   2.45820084  1.99262531 -3.09299787
O   2.89253190  3.08829686 -3.01426435
N   3.21780068  0.84086696 -3.29467226
H   3.53732919 -0.57757030  1.11225842
H   3.32071879  2.13654099  2.33658292
H   1.87318512  0.73055524 -0.53746463
H   1.05877212  3.42971003 -1.41153692
H   1.21479069 -1.61952178  3.82020851
H   0.18238110 -1.22262798  1.34571085
H   3.45382940 -1.87970184  3.95787315
H   2.87738536 -3.41924945  3.50782559
H  -0.96336489 -4.47321572  0.42887697
H   4.90171991 -4.58513829  2.76032880
H   1.19248319 -4.42652740 -0.99793468
H   1.46895352 -2.64737125 -0.84180309
H   5.19334194 -2.81416093 -0.92899990
H   5.60080330 -5.00291389  0.39516571
H  -2.09638529 -2.01529187 -2.21268055
H  -0.66027759 -1.07870030 -1.63935319
H  -0.87000922 -3.97676721 -2.55018569
H   0.39601678 -2.67637170 -2.89380258
H  -3.94990587 -1.00462812  1.10684910
H  -2.58634608  0.45356835 -0.94517976
H  -5.09859595 -2.56308445 -0.66927555
H  -4.23569713 -1.64013279 -1.90208293
H  -5.01548378  0.46675411 -0.50063813
H  -6.05817043 -0.13382792 -1.78973300
H  -2.04059749  2.46585267  2.00392963
H  -0.10523432  3.02696958  0.91326388
H  -3.30405747  3.07138566 -0.56693470
H  -2.93959085  4.29493319  0.54272741
H  -7.59694192 -2.93962647  0.37183338
H  -7.55467099 -2.01660921  2.09208817
H  -6.03241142 -2.13562477  1.35840544
H  -4.69909029  3.26194970  2.01677360
H  -4.98637776  2.18470982  0.76129733
H  -7.28002470  4.01384669 -0.98937992
H  -6.84191584  2.44914114 -0.38332022
H   5.28662478  1.02139435  1.15808123
H   4.42374537  0.86537985 -0.31453162
H   4.00083178  3.35266715 -0.57040759
H   5.39401363  3.71504150  0.73288849
H   7.50464653  1.87477788  0.25634570
H   8.20252904  1.94130314 -1.14377414
H   7.06404264  0.67712746 -0.98927133
H   0.72931009  0.72212179 -2.72803686
H   0.26264703  2.11904102 -3.34878248
H   4.09982917  0.93821233 -3.79288279
H   2.75059851 -0.06079404 -3.40381963
