96
pH=5.78 total_charge=0 partial_charge_sum=-0.000000 method=gasteiger energy=-483.07466450
N   3.09046542  0.19985811  1.83304515
C   3.33315213  1.53557962  1.38491339
C   2.16633824  2.28112299  0.65378346
O   1.84847255  3.42998469  0.97559011
N   1.60039362  1.61637183 -0.37157361
C   0.75404861  2.20681462 -1.39744294
C   2.04932499 -0.08274108  2.64405543
C   1.64733917 -1.51433627  2.73486907
O   1.40959098  0.79758134  3.18285286
N   0.99734403 -1.93216914  1.56908996
C   2.89492195 -2.46931670  3.12910213
C   0.67319978 -3.22886597  1.45170521
C   3.64493241 -3.12179554  1.95421490
C  -0.33619957 -3.51026303  0.31859114
O   1.13783328 -4.19832094  1.99578016
N   3.91139059 -2.31134915  0.79615682
C   4.46457107 -4.22392177  1.88069767
N  -1.34086465 -2.51875462 -0.08964099
C   0.55502873 -3.69288084 -0.93352043
C   4.91230581 -2.87673991  0.20903395
N   5.27318369 -4.01706719  0.74298897
C  -1.06973967 -2.21747053 -1.49434821
C  -2.55784240 -2.31912587  0.57874069
C  -0.38279644 -3.37143057 -2.05657000
C  -3.55007439 -1.18677841  0.26271168
O  -2.74983171 -3.03240804  1.57049155
N  -2.76099437  0.09899648  0.12868911
C  -4.46947493 -1.25520971 -0.95509459
C  -2.82374842  1.00287332  1.13393776
C  -5.68258218 -0.28822174 -1.07584801
C  -2.31114568  2.35200906  0.88369355
O  -3.14234837  0.66962596  2.27777965
S  -7.16605940 -0.56214383 -0.01471216
N  -1.08075461  2.36588850  0.21009563
C  -3.22558551  3.43873221  0.30865642
C  -6.71010851 -1.78980742  1.26071157
C  -0.74829237  2.08838687 -1.09583636
C  -4.58363152  3.22671124  0.97921011
O  -1.59926485  1.63626541 -1.92255067
C  -5.61236666  4.02105475  0.19720497
O  -5.39721800  5.17648004  0.01054139
N  -6.79123010  3.28791877 -0.13212732
C   4.67654225  1.44758751  0.62270850
C   5.20004217  2.78527523  0.21428168
S   6.17779470  2.75492196 -1.26884243
C   7.55527490  1.73528021 -0.78467357
C   1.03187792  1.59453141 -2.67839599
C   2.33976607  1.99300916 -3.31772911
O   2.69928244  3.13756370 -3.23664536
N   3.16211080  1.00698690 -3.85405763
H   3.41826805 -0.45672882  1.12756960
H   3.44079873  2.26596374  2.18727440
H   1.91361704  0.70673596 -0.63990040
H   1.11167098  3.29101650 -1.51933388
H   0.94459162 -1.47558841  3.52337450
H   0.10930839 -1.39475810  1.38323735
H   3.72508821 -1.90172211  3.70293232
H   2.44537315 -3.11152076  3.84110639
H  -0.91967289 -4.38509527  0.61923477
H   4.74994203 -4.94254882  2.63779265
H   1.03825608 -4.67540616 -1.09292360
H   1.19991221 -2.79640577 -0.74092092
H   5.40625259 -2.47705140 -0.72335071
H   5.83174414 -4.71539650  0.34240322
H  -2.04134693 -1.97034777 -2.00081186
H  -0.44514995 -1.35347136 -1.65216311
H  -1.05421462 -4.20634780 -2.36325053
H   0.27236710 -3.02460364 -2.94152794
H  -4.09924116 -1.04105907  1.18142559
H  -2.66192361  0.54498039 -0.85106964
H  -5.00151101 -2.22213442 -0.94392423
H  -4.11062024 -1.16413694 -1.89204652
H  -5.37299582  0.74977849 -0.91170292
H  -5.91179451 -0.33561993 -2.13217511
H  -2.25525651  2.62519124  2.00246418
H  -0.31901396  2.95137659  0.63141829
H  -3.33123921  3.39128491 -0.70574699
H  -2.81470125  4.38895733  0.60702791
H  -7.15303998 -2.76332961  0.82031605
H  -7.09015012 -1.46012948  2.20465892
H  -5.62538157 -1.79955335  1.50787344
H  -4.64129683  3.44417158  2.07764592
H  -4.76621265  2.14442953  0.89770736
H  -7.44504399  3.97129267 -0.37338642
H  -6.95048945  2.55409921  0.43258057
H   5.35094697  0.86187219  1.17048363
H   4.52568624  0.96814508 -0.38213318
H   4.27239937  3.31306048 -0.18715144
H   5.67294073  3.28633030  1.07295201
H   8.12714130  2.26545597 -0.03653655
H   8.34549973  1.47354376 -1.46423829
H   7.09553596  0.80707881 -0.49972931
H   0.89049891  0.54140886 -2.74693265
H   0.43341511  1.91645945 -3.52163354
H   3.83910509  1.28382477 -4.55598901
H   2.80921344  0.09809932 -3.93792557
