96
pH=5.78 total_charge=0 partial_charge_sum=-0.000000 method=gasteiger energy=-482.76216450
N   2.65807595 -0.12417649  1.07299016
C   3.32274630  1.19924005  0.85662846
C   2.20259594  2.25886001  0.51478474
O   2.09090908  3.29230904  1.18229093
N   1.43824951  1.92366808 -0.52131664
C   0.55099052  2.85112951 -1.20485174
C   1.80338764 -0.29713606  2.21634872
C   1.64805502 -1.72605732  2.91260345
O   1.00605914  0.59150307  2.42195060
N   0.59059352 -2.25701969  2.12544260
C   3.00669802 -2.51374355  2.97145195
C   0.66965680 -3.48385349  1.54112335
C   3.85667886 -2.94586711  1.68482509
C  -0.21251251 -3.69578159  0.27262565
O   1.20899445 -4.50560635  1.82550129
N   4.98595902 -2.24079475  1.39107091
C   3.74689945 -4.05601681  0.89301877
N  -1.09311997 -2.52063205  0.08712974
C   0.57539711 -3.77022584 -1.01577906
C   5.55245482 -2.78483506  0.40835395
N   4.78279687 -3.84835325  0.02614351
C  -0.50630187 -1.63126467 -0.80459424
C  -2.38193083 -2.43591207  0.56186582
C   0.55096546 -2.28673034 -1.55838302
C  -3.35793256 -1.27426028  0.29998541
O  -2.88152402 -3.40539419  1.11677719
N  -2.80873890  0.14719930  0.34678961
C  -4.18256497 -1.54048653 -0.84970342
C  -2.71373170  0.89602545  1.52816248
C  -5.32975052 -0.56214676 -1.19485126
C  -2.38514493  2.36326753  1.31299649
O  -3.05743979  0.43135013  2.61118974
S  -6.80815295 -0.74552624 -0.02770201
N  -1.10536291  2.50162614  0.53498048
C  -3.56513058  3.03186912  0.65955115
C  -7.35188014 -2.37325571 -0.74300777
C  -0.99415492  2.72780851 -0.76418504
C  -4.82043532  2.85275762  1.45609565
O  -1.85901260  2.78464177 -1.59971568
C  -6.01215596  3.56601050  0.84478755
O  -5.78930286  4.63061960  0.38869653
N  -7.28605688  3.00406449  0.89703365
C   4.47107026  1.06482423 -0.14447141
C   5.13893133  2.40929660 -0.24855946
S   6.36800091  2.42806718 -1.49698865
C   7.94890830  1.96752742 -0.62165293
C   0.80204680  2.73277207 -2.73128552
C   2.28209395  2.84608610 -3.06761254
O   2.99440566  3.70177480 -2.59600876
N   2.75664385  1.81357577 -3.88630560
H   3.39108368 -0.80546987  1.12145155
H   3.73344059  1.57817188  1.73455104
H   1.85979890  1.30184025 -1.16803089
H   0.88093987  3.90084330 -0.99670032
H   1.29846034 -1.64490202  3.96554333
H  -0.07508181 -1.55698791  1.70585685
H   3.66992093 -1.79713168  3.53364657
H   2.87967135 -3.49347777  3.50207889
H  -0.78916532 -4.53408343  0.57401266
H   3.03444582 -4.92653645  0.76577018
H   0.08499835 -4.45333115 -1.68721202
H   1.58424571 -4.30477117 -0.78094815
H   6.36464077 -2.59859432 -0.20995169
H   5.28090854 -4.52611048 -0.55208038
H  -1.19933248 -1.19079405 -1.58156212
H  -0.01987448 -0.82800626 -0.17490376
H   0.33593896 -2.34095884 -2.65726537
H   1.56987531 -1.96764060 -1.52650047
H  -3.98765477 -1.44930097  1.24149970
H  -2.19282387  0.42123201 -0.40974040
H  -4.39330450 -2.62555293 -0.75505202
H  -3.51813505 -1.63288935 -1.68597185
H  -5.01377115  0.51729938 -1.13051665
H  -5.56645095 -0.90076092 -2.24639873
H  -2.24151595  2.83847869  2.34022437
H  -0.21451085  2.46894261  0.95060927
H  -3.61248912  2.48411369 -0.26943920
H  -3.43674421  4.01829027  0.26890856
H  -8.36607973 -2.61133109 -0.49421187
H  -6.52936397 -3.06128400 -0.31125157
H  -7.17845176 -2.30483240 -1.83654258
H  -4.65914693  3.22487243  2.40973632
H  -5.17715895  1.81748577  1.55140254
H  -7.95391374  3.78689339  0.72926644
H  -7.50710946  2.20552554  1.38433988
H   5.31964489  0.38619456  0.13285193
H   4.03913316  0.68207939 -1.10588872
H   4.55538467  3.30534022 -0.36505096
H   5.69517617  2.58657401  0.63986531
H   8.59188853  1.41736785 -1.29374632
H   7.79895330  1.10884244  0.02223380
H   8.43284984  2.84328638 -0.26578000
H   0.44474617  1.67014543 -3.14804614
H   0.21609057  3.62170463 -3.06577407
H   3.73296337  1.64427800 -4.00888654
H   2.15675730  1.04159044 -4.01153443
