96
pH=5.78 total_charge=0 partial_charge_sum=-0.000000 method=gasteiger energy=-483.73091450
N   2.99599896  0.05578789  1.02835432
C   3.58534729  1.43408798  0.89112211
C   2.46431463  2.42481597  0.67132976
O   2.38157606  3.45610667  1.21388070
N   1.48716835  1.99108143 -0.25294280
C   0.57247912  2.91087898 -0.78715084
C   2.18737283 -0.10909089  2.16271087
C   1.61135460 -1.51599829  2.37169370
O   2.01206124  0.80920322  2.93243159
N   0.98286815 -2.09215417  1.20210236
C   2.73398034 -2.34638252  2.89825506
C   0.20165221 -3.22272302  1.18460365
C   3.76669444 -2.79550569  1.94143989
C  -0.48003133 -3.50772647 -0.23673287
O   0.00154063 -4.01895086  2.02919486
N   4.88932207 -2.14084951  1.76853780
C   3.70424917 -3.87711761  1.14442746
N  -1.47460613 -2.46509813 -0.46582561
C   0.41481430 -3.47200228 -1.47666275
C   5.66224100 -2.85794487  0.94863319
N   4.95384194 -3.97443751  0.53819471
C  -1.13016993 -1.66927367 -1.61735007
C  -2.65588599 -2.65780140  0.24322484
C   0.26480754 -2.08608229 -2.02553772
C  -3.69853375 -1.61398325  0.19637821
O  -2.81767603 -3.65029272  0.88108243
N  -3.07360682 -0.23434384  0.32766289
C  -4.53319248 -1.63865411 -1.16349278
C  -2.54517727  0.27038888  1.43402552
C  -5.80257137 -0.90023004 -1.03653163
C  -2.33201493  1.81985303  1.41217933
O  -2.23056055 -0.29032846  2.48366134
S  -6.91544615 -1.73698710  0.10034666
N  -1.01917730  2.10836546  0.83447762
C  -3.45862578  2.62650012  0.67791526
C  -7.72432734 -2.84100174 -1.07931616
C  -0.72170151  2.20035099 -0.45041107
C  -4.90116123  2.20252504  1.04563610
O  -1.44533421  1.67904032 -1.31395095
C  -5.84096658  3.31837585  0.86433299
O  -5.66888745  4.35016860  1.48333121
N  -6.72727327  3.11933241 -0.20471929
C   4.58811587  1.59698500 -0.25469091
C   5.40056857  2.90453087 -0.29893446
S   6.72972241  2.86169677 -1.45975025
C   7.75223066  1.42236378 -0.94275283
C   0.74115377  3.15251866 -2.23167637
C   1.97774897  3.96486072 -2.40080830
O   2.12752899  5.06627405 -1.94485857
N   3.06144378  3.30113129 -2.92869692
H   3.65882017 -0.74036352  0.88959618
H   4.02502289  1.57926273  1.86708977
H   1.45295022  0.97595501 -0.44758714
H   0.87240277  3.86788707 -0.10851016
H   0.86987250 -1.34827002  3.21110498
H   0.74549556 -1.43436443  0.37544768
H   3.13778675 -1.97547505  3.85501560
H   2.26801699 -3.31855261  3.19054065
H  -0.86467499 -4.46952550  0.00124864
H   2.89650814 -4.54805090  1.21930627
H   0.04218568 -4.22858765 -2.09849898
H   1.52167523 -3.69899892 -1.19168473
H   6.64159220 -2.53907187  0.64261651
H   5.33119979 -4.73772069  0.04929257
H  -1.86849036 -1.84475860 -2.43503315
H  -1.01738268 -0.55417841 -1.44111502
H   0.36906798 -2.04257943 -3.08238444
H   0.98284612 -1.41877121 -1.59880000
H  -4.24234291 -1.73366947  1.17518372
H  -2.83420470  0.20259251 -0.57263594
H  -4.63359829 -2.67683800 -1.52079928
H  -3.87623130 -1.19268748 -1.93205858
H  -5.55431365  0.10522382 -0.60185364
H  -6.34131340 -0.78487446 -1.94618369
H  -2.31723770  2.07091653  2.43132863
H  -0.40918138  2.61197028  1.59527042
H  -3.50111516  2.44624631 -0.45773311
H  -3.34717229  3.68145759  0.96489937
H  -8.56836371 -3.22444597 -0.51412882
H  -7.04485689 -3.70814160 -1.34309666
H  -8.02661859 -2.38410804 -2.03339296
H  -5.04326633  2.00086497  2.15534742
H  -5.32085028  1.40581680  0.52161836
H  -7.16267728  3.83266458 -0.68721786
H  -6.57830234  2.31996788 -0.76735629
H   5.22354817  0.75907232 -0.30566846
H   4.06983762  1.55449712 -1.22502323
H   4.61419540  3.62831332 -0.63953833
H   5.59992510  3.28595943  0.75918521
H   7.86984950  0.84097880 -1.89017256
H   7.16350645  0.74228023 -0.21706176
H   8.74439683  1.48391206 -0.42639159
H   0.78287645  2.22197174 -2.84089385
H  -0.12197047  3.66764328 -2.65088951
H   3.96013621  3.71814252 -2.98775347
H   2.97773121  2.35556901 -3.31425323
