96
pH=5.78 total_charge=0 partial_charge_sum=-0.000000 method=gasteiger energy=-485.37935200
N   3.07512429  0.11538502  1.27028481 -0.34247823
C   3.63372194  1.45802902  1.09893442  0.10852005
C   2.54070385  2.40196263  0.67713754  0.24277160
O   2.40222427  3.49714455  1.28652611 -0.27270386
N   1.68041762  2.06555535 -0.42249964 -0.34200297
C   0.60175954  2.93911536 -0.88777685  0.11647572
C   2.22483513 -0.23082798  2.37621057  0.24313591
C   1.64473004 -1.62125162  2.49733441  0.11332001
O   1.97758226  0.62050444  3.27319128 -0.27268967
N   1.03559509 -2.04218999  1.22689952 -0.34212643
C   2.71398607 -2.62077918  2.99703226  0.02063094
C   0.25143543 -3.23798351  1.09066288  0.24296826
C   3.81327742 -2.86951168  2.00597197  0.06067665
C  -0.38819235 -3.59597767 -0.22877317  0.11064383
O   0.04242750 -3.97681292  2.09032459 -0.27269583
N   4.97599777 -2.18659341  1.98276600 -0.24192954
C   3.78436546 -3.77926896  0.97303070  0.02363101
N  -1.47408893 -2.67146166 -0.52722011 -0.32888662
C   0.58397556 -3.49854390 -1.40905813 -0.02176809
C   5.63348293 -2.70268607  0.92301252  0.09225697
N   4.93546292 -3.66735720  0.29431907 -0.35090330
C  -1.24017338 -1.91320455 -1.74760789  0.02147785
C  -2.70704185 -2.67501635  0.22659132  0.24536084
C   0.17286812 -2.25935186 -2.19974467 -0.03293701
C  -3.77155207 -1.60675114  0.09069030  0.10873818
O  -2.92211598 -3.61406069  1.04117337 -0.27247111
N  -3.18715025 -0.26096754  0.05761445 -0.34248130
C  -4.66508879 -1.87415640 -1.14100287 -0.01454844
C  -2.54486577  0.31125676  1.20956739  0.24274287
C  -5.95357528 -1.03748564 -1.14258786 -0.00456042
C  -2.39363222  1.80675489  1.38561761  0.10823014
O  -2.08589105 -0.44685343  2.10684962 -0.27270440
S  -7.10359128 -1.53485490  0.19345895 -0.16533851
N  -1.09648750  2.26783181  0.87708498 -0.34249261
C  -3.55522635  2.65217881  0.81666101 -0.01488792
C  -7.92669273 -2.86387518 -0.74336087 -0.01839860
C  -0.72141645  2.32388102 -0.50937269  0.24326556
C  -4.89943028  2.31354077  1.47746012  0.02871204
O  -1.47465406  1.84019414 -1.39618955 -0.27268723
C  -5.96356846  3.27021808  1.02943163  0.21700785
O  -6.31753744  4.21277115  1.78687063 -0.27537243
N  -6.55381745  3.14347348 -0.26394096 -0.36967862
C   4.76859146  1.42824665  0.05584780 -0.01455657
C   5.49711213  2.77252811 -0.05509350 -0.00456056
S   6.82710216  2.67891623 -1.30566898 -0.16533851
C   8.11582417  2.06759964 -0.17079096 -0.01839860
C   0.73316854  3.17548542 -2.40391083  0.05564542
C   2.01746932  3.88215788 -2.72831234  0.21952925
O   2.06669437  5.14036706 -2.68735716 -0.27526757
N   3.19655160  3.13789190 -3.03511441 -0.36959816
H   3.25792173 -0.60173594  0.53223107  0.16388141
H   4.06514373  1.78963835  2.07036449  0.06324568
H   1.79045001  1.13215419 -0.88083319  0.16389733
H   0.65823898  3.93134179 -0.38817363  0.06376306
H   0.83919716 -1.58578907  3.26464295  0.06363435
H   1.06859065 -1.39486342  0.40875555  0.16389492
H   3.16112429 -2.23436310  3.93888230  0.03595049
H   2.23883016 -3.58950226  3.25574333  0.03595049
H  -0.78606834 -4.63495084 -0.17914455  0.06345153
H   2.98845143 -4.47173938  0.73350793  0.08355648
H   0.46864874 -4.39616862 -2.05603791  0.02937025
H   1.64814120 -3.43531240 -1.09491473  0.02937025
H   6.61541164 -2.37248800  0.61088698  0.10408786
H   5.22804512 -4.21286203 -0.54614617  0.16690687
H  -1.96465236 -2.22454418 -2.52802267  0.04940774
H  -1.31455347 -0.82464585 -1.56015637  0.04940774
H   0.20812936 -2.45287179 -3.29405797  0.02855806
H   0.86143463 -1.41761509 -1.96682212  0.02855806
H  -4.41496133 -1.66912819  0.99603953  0.06325385
H  -3.36437912  0.34035943 -0.77531352  0.16388135
H  -4.93235965 -2.95156190 -1.18459511  0.03014522
H  -4.10553624 -1.63758900 -2.06853467  0.03014522
H  -5.70662594  0.03425315 -1.00815024  0.03810564
H  -6.45264372 -1.12961966 -2.13064133  0.03810564
H  -2.39330665  1.99220543  2.48420692  0.06322944
H  -0.40406886  2.61208873  1.58053495  0.16388107
H  -3.64308552  2.53160168 -0.28221350  0.02981628
H  -3.32479991  3.72373928  1.00911702  0.02981628
H  -8.69462056 -3.33632236 -0.09735440  0.03438018
H  -7.19353442 -3.63812976 -1.04718871  0.03438018
H  -8.42626256 -2.44529320 -1.64153976  0.03438018
H  -4.80084728  2.36630545  2.58389180  0.03675720
H  -5.20806486  1.28042475  1.21153799  0.03675720
H  -7.29126071  3.81418036 -0.57442736  0.15909984
H  -6.24716879  2.39119213 -0.91875877  0.15909984
H   5.49844700  0.64599771  0.35504541  0.03014509
H   4.36201229  1.14496333 -0.93970173  0.03014509
H   4.78412301  3.55532988 -0.38889179  0.03810564
H   5.90349636  3.07900772  0.93250935  0.03810564
H   9.05811270  1.92789048 -0.73903066  0.03438018
H   7.81877025  1.09369013  0.26833868  0.03438018
H   8.29477295  2.80620055  0.63790565  0.03438018
H   0.69531041  2.20635900 -2.94828844  0.03937510
H  -0.11791744  3.79717342 -2.75941659  0.03937510
H   4.09595336  3.63146028 -3.22871074  0.15910138
H   3.17726352  2.09437203 -3.06024960  0.15910138
