      -----------------------------------------------------------      
     |                   =====================                   |     
     |                           x T B                           |     
     |                   =====================                   |     
     |                         S. Grimme                         |     
     |          Mulliken Center for Theoretical Chemistry        |     
     |                    University of Bonn                     |     
      -----------------------------------------------------------      

   * xtb version 6.7.1 (26dd68d) compiled by 'froitzheim@fs7' on 2026-05-14

   xtb is free software: you can redistribute it and/or modify it under
   the terms of the GNU Lesser General Public License as published by
   the Free Software Foundation, either version 3 of the License, or
   (at your option) any later version.
   
   xtb is distributed in the hope that it will be useful,
   but WITHOUT ANY WARRANTY; without even the implied warranty of
   MERCHANTABILITY or FITNESS FOR A PARTICULAR PURPOSE.  See the
   GNU Lesser General Public License for more details.
   
   Cite this work as:
   * C. Bannwarth, E. Caldeweyher, S. Ehlert, A. Hansen, P. Pracht,
     J. Seibert, S. Spicher, S. Grimme, WIREs Comput. Mol. Sci., 2020, 11,
     e01493. DOI: 10.1002/wcms.1493
   
   for g-xTB:
   * T. Froitzheim, M. Müller, A. Hansen, S. Grimme, ChemRxiv, 2025, preprint.
     DOI: 10.26434/chemrxiv-2025-bjxv
   for GFN2-xTB:
   * C. Bannwarth, S. Ehlert and S. Grimme., J. Chem. Theory Comput., 2019,
     15, 1652-1671. DOI: 10.1021/acs.jctc.8b01176
   for GFN1-xTB:
   * S. Grimme, C. Bannwarth, P. Shushkov, J. Chem. Theory Comput., 2017,
     13, 1989-2009. DOI: 10.1021/acs.jctc.7b00118
   for GFN0-xTB:
   * P. Pracht, E. Caldeweyher, S. Ehlert, S. Grimme, ChemRxiv, 2019, preprint.
     DOI: 10.26434/chemrxiv.8326202.v1
   for GFN-FF:
   * S. Spicher and S. Grimme, Angew. Chem. Int. Ed., 2020, 59, 15665-15673.
     DOI: 10.1002/anie.202004239
   
   for ALPB and GBSA implicit solvation:
   * S. Ehlert, M. Stahn, S. Spicher, S. Grimme, J. Chem. Theory Comput.,
     2021, 17, 4250-4261. DOI: 10.1021/acs.jctc.1c00471
   
   for ddCOSMO and CPCM-X implicit solvation:
   * M. Stahn, S. Ehlert, S. Grimme, J. Phys. Chem. A,
     2023, XX, XXXX-XXXX. DOI: 10.1021/acs.jpca.3c04382
   
   for DFT-D4:
   * E. Caldeweyher, C. Bannwarth and S. Grimme, J. Chem. Phys., 2017,
     147, 034112. DOI: 10.1063/1.4993215
   * E. Caldeweyher, S. Ehlert, A. Hansen, H. Neugebauer, S. Spicher,
     C. Bannwarth and S. Grimme, J. Chem. Phys., 2019, 150, 154122.
     DOI: 10.1063/1.5090222
   * E. Caldeweyher, J.-M. Mewes, S. Ehlert and S. Grimme, Phys. Chem. Chem. Phys.
     2020, 22, 8499-8512. DOI: 10.1039/D0CP00502A
   
   for sTDA-xTB:
   * S. Grimme and C. Bannwarth, J. Chem. Phys., 2016, 145, 054103.
     DOI: 10.1063/1.4959605
   
   in the mass-spec context:
   * V. Asgeirsson, C. Bauer and S. Grimme, Chem. Sci., 2017, 8, 4879.
     DOI: 10.1039/c7sc00601b
   * J. Koopman and S. Grimme, ACS Omega 2019, 4, 12, 15120-15133.
     DOI: 10.1021/acsomega.9b02011
   
   for metadynamics refer to:
   * S. Grimme, J. Chem. Theory Comput., 2019, 155, 2847-2862
     DOI: 10.1021/acs.jctc.9b00143
   
   for SPH calculations refer to:
   * S. Spicher and S. Grimme, J. Chem. Theory Comput., 2021, 17, 1701-1714
     DOI: 10.1021/acs.jctc.0c01306
   
   for ONIOM refer to:
   * C. Plett, A. Katbashev, S. Ehlert, S. Grimme, M. Bursch,
     Phys. Chem. Chem. Phys., 2023, 25, 17860-17868. DOI: 10.1039/D3CP02178E
   
   for DIPRO refer to:
   * J. Kohn, N. Gildemeister, S. Grimme, D. Fazzi, A. Hansen,
     J. Chem. Phys. 159, 144106 (2023). DOI: 10.1063/5.0167484
   
   for PTB refer to:
   * S. Grimme, M. Mueller, A. Hansen, J. Chem. Phys., 2023, 158, 124111.
     DOI: 10.1063/5.0137838
   
   with help from (in alphabetical order)
   P. Atkinson, C. Bannwarth, F. Bohle, G. Brandenburg, E. Caldeweyher,
   M. Checinski, S. Dohm, S. Ehlert, S. Ehrlich, M. Friede, T. Froitzheim,
   I. Gerasimov, C. Hölzer, A. Katbashev, J. Kohn, J. Koopman, C. Lavigne,
   S. Lehtola, F. März, M. Müller, F. Musil, H. Neugebauer, J. Pisarek,
   C. Plett, P. Pracht, F. Pultar, J. Seibert, P. Shushkov, S. Spicher,
   M. Stahn, M. Steiner, T. Strunk, J. Stückrath, T. Rose, and J. Unsleber
   
 * started run on 2026/05/23 at 12:48:11.415     
   ID    Z sym.   atoms
    1    7 N      1, 5, 10, 17, 22, 26, 27, 33, 41
    2    6 C      2, 3, 6-8, 11-14, 16, 18-21, 23, 28-30, 34-39
    3    8 O      4, 9, 15, 24, 25, 31, 32, 40
    4    1 H      42-82

           -------------------------------------------------
          |                Calculation Setup                |
           -------------------------------------------------

          program call               : /home/xchen/software/xtb-6.7.1-gxtb/bin/xtb /home/xchen/Test/benchmark/md_sampled/09_5_0584_0/snap_0192.xyz --charge 0 --gxtb --norestart
          coordinate file            : /home/xchen/Test/benchmark/md_sampled/09_5_0584_0/snap_0192.xyz
          omp threads                :                    48

core increment energy         -1.8448408193529E+03 Eh
dispersion energy              1.5740652267969E-02 Eh
molecular charge               0.0000000000000E+00 e
number of electrons            2.2999999999795E+02 e
number of unpaired electrons   0.0000000000000E+00 e
wavefunction                   restricted
integral cutoff                2.6907767250513E+01 bohr
energy convergence             1.0000000000000E-06 Eh
density convergence            2.0000000000000E-05 e

------------------------------------------------------------
  cycle        total energy    energy error   density error
------------------------------------------------------------
      1     -2032.879550967  -1.8805447E+02   0.0000000E+00
      2     -2033.215324522  -3.3577355E-01   2.1909150E-02
      3     -2033.436891338  -2.2156682E-01   1.7577020E-02
      4     -2033.922422431  -4.8553109E-01   1.4105104E-02
      5     -2033.930309885  -7.8874543E-03   1.1185830E-03
      6     -2033.930859479  -5.4959381E-04   2.3610889E-04
      7     -2033.930907438  -4.7959116E-05   7.7053704E-05
      8     -2033.930911362  -3.9243501E-06   1.8666532E-05
      9     -2033.930911735  -3.7312506E-07   3.7660355E-06
------------------------------------------------------------

electronic energy             -1.8910583303484E+02 Eh
total energy                  -2.0339309117355E+03 Eh

Post processing:
 | Mayer-Wiberg bond orders
 | Molecular Multipole Moments

 total:                                  10.933 sec
 - increment                              0.000 sec (  0%)
 - repulsion                              0.011 sec (  0%)
 - dispersion                             0.298 sec (  2%)
 - coulomb                                0.117 sec (  1%)
 - exchange                               0.005 sec (  0%)
 - hamiltonian                            0.517 sec (  4%)
 - acp                                    0.276 sec (  2%)
 - spin polarization                      0.000 sec (  0%)
 - post processing                        0.076 sec (  0%)
 - scc                                    8.842 sec ( 80%)
 - coulomb gradient                       0.088 sec (  0%)
 - dispersion gradient                    0.038 sec (  0%)
 - exchange gradient                      0.155 sec (  1%)
 - repulsion gradient                     0.051 sec (  0%)
 - acp gradient                           0.211 sec (  1%)
 - hamiltonian gradient                   0.318 sec (  2%)
 - gradient                               0.861 sec (  7%)

         :::::::::::::::::::::::::::::::::::::::::::::::::::::
         ::                     SUMMARY                     ::
         :::::::::::::::::::::::::::::::::::::::::::::::::::::
         :: total energy           -2033.930911735472 Eh    ::
         :: gradient norm              0.361204489211 Eh/a0 ::
         :: HOMO-LUMO gap              9.473643599716 eV    ::
         ::.................................................::
         :: add. restraining           0.000000000000 Eh    ::
         :: total charge              -0.000000000000 e     ::
         :::::::::::::::::::::::::::::::::::::::::::::::::::::

           -------------------------------------------------
          |                Property Printout                |
           -------------------------------------------------

    * Orbital Energies and Occupations
------------------------------------------------------------------
      #    Occupation            Energy/Eh            Energy/eV
------------------------------------------------------------------
      1        2.0000           -1.3553773             -36.8817
    ...           ...                  ...                  ...
    103        2.0000           -0.3898174             -10.6075
    104        2.0000           -0.3859845             -10.5032
    105        2.0000           -0.3840961             -10.4518
    106        2.0000           -0.3817795             -10.3887
    107        2.0000           -0.3722752             -10.1301
    108        2.0000           -0.3714297             -10.1071
    109        2.0000           -0.3598289              -9.7914
    110        2.0000           -0.3593197              -9.7776
    111        2.0000           -0.3573329              -9.7235
    112        2.0000           -0.3569662              -9.7135
    113        2.0000           -0.3514404              -9.5632
    114        2.0000           -0.3489961              -9.4967
    115        2.0000           -0.3428326              -9.3290 (HOMO)
    116                          0.0053174               0.1447 (LUMO)
    117                          0.0182284               0.4960
    118                          0.0313137               0.8521
    119                          0.0330888               0.9004
    120                          0.0433020               1.1783
    121                          0.0435782               1.1858
    122                          0.0475820               1.2948
    123                          0.0589321               1.6036
    124                          0.1601052               4.3567
    125                          0.1641656               4.4672
    126                          0.1756652               4.7801
    ...                                ...                  ...
    205                          0.8177099              22.2510
------------------------------------------------------------------
               HL-Gap            0.3481500 Eh            9.4736 eV
------------------------------------------------------------------

Atomic charges and shell populations (in atomic units):
------------------------------------------------------
     #    Z                q          p(s)       p(p)
------------------------------------------------------
     1    7 N      -0.345367      1.356546   3.988822
     2    6 C      -0.014462      1.106952   2.907510
     3    6 C       0.426390      1.091417   2.482193
     4    8 O      -0.564027      1.847272   4.716755
     5    7 N      -0.308728      1.345183   3.963545
     6    6 C      -0.007486      1.110664   2.896822
     7    6 C       0.435309      1.069039   2.495653
     8    6 C       0.008122      1.129681   2.862197
     9    8 O      -0.502000      1.844756   4.657244
    10    7 N      -0.309115      1.362047   3.947068
    11    6 C      -0.185271      1.157389   3.027882
    12    6 C       0.400357      1.098744   2.500899
    13    6 C      -0.179214      1.144047   3.035167
    14    6 C       0.021741      1.127876   2.850383
    15    8 O      -0.525760      1.857502   4.668258
    16    6 C      -0.200558      1.163461   3.037097
    17    7 N      -0.326873      1.362596   3.964277
    18    6 C      -0.194297      1.158291   3.036006
    19    6 C      -0.086168      1.132872   2.953297
    20    6 C       0.428115      1.107726   2.464159
    21    6 C       0.421105      1.094346   2.484549
    22    7 N      -0.504150      1.441000   4.063150
    23    6 C      -0.008039      1.130615   2.877425
    24    8 O      -0.552000      1.855742   4.696258
    25    8 O      -0.522178      1.863202   4.658976
    26    7 N      -0.434901      1.375395   4.059506
    27    7 N      -0.364299      1.418797   3.945502
    28    6 C      -0.193891      1.169931   3.023961
    29    6 C       0.410844      1.112004   2.477152
    30    6 C       0.409083      1.096259   2.494658
    31    8 O      -0.512019      1.854412   4.657608
    32    8 O      -0.494219      1.849835   4.644383
    33    7 N      -0.435570      1.382893   4.052676
    34    6 C      -0.094610      1.124070   2.970540
    35    6 C      -0.243675      1.180439   3.063235
    36    6 C      -0.270166      1.164001   3.106165
    37    6 C      -0.163402      1.134963   3.028439
    38    6 C      -0.199742      1.159249   3.040493
    39    6 C       0.400838      1.109427   2.489735
    40    8 O      -0.527407      1.856962   4.670445
    41    7 N      -0.426329      1.368418   4.057911
    42    1 H       0.297109      0.702891
    43    1 H       0.129041      0.870959
    44    1 H       0.275629      0.724371
    45    1 H       0.127539      0.872461
    46    1 H       0.121500      0.878500
    47    1 H       0.253296      0.746704
    48    1 H       0.098596      0.901404
    49    1 H       0.103704      0.896296
    50    1 H       0.087731      0.912269
    51    1 H       0.090207      0.909793
    52    1 H       0.126834      0.873166
    53    1 H       0.089885      0.910115
    54    1 H       0.083958      0.916042
    55    1 H       0.267786      0.732214
    56    1 H       0.120188      0.879812
    57    1 H       0.100865      0.899135
    58    1 H       0.098627      0.901373
    59    1 H       0.098797      0.901203
    60    1 H       0.214602      0.785398
    61    1 H       0.222299      0.777701
    62    1 H       0.165854      0.834146
    63    1 H       0.250925      0.749075
    64    1 H       0.249854      0.750146
    65    1 H       0.300428      0.699572
    66    1 H       0.109272      0.890728
    67    1 H       0.146036      0.853964
    68    1 H       0.249964      0.750036
    69    1 H       0.250396      0.749604
    70    1 H       0.116503      0.883497
    71    1 H       0.084911      0.915089
    72    1 H       0.076563      0.923437
    73    1 H       0.103821      0.896179
    74    1 H       0.073126      0.926874
    75    1 H       0.110030      0.889970
    76    1 H       0.079625      0.920375
    77    1 H       0.107787      0.892213
    78    1 H       0.113912      0.886088
    79    1 H       0.110030      0.889970
    80    1 H       0.125907      0.874093
    81    1 H       0.257414      0.742586
    82    1 H       0.243473      0.756527
------------------------------------------------------


Wiberg/Mayer (AO) data.
largest (>0.10) Wiberg bond orders for each atom

 ---------------------------------------------------------------------------
     #   Z sym  total        # sym  WBO       # sym  WBO       # sym  WBO
 ---------------------------------------------------------------------------
     1   7 N    3.324 --     7 C    1.205     2 C    0.974    42 O    0.865
                             9 C    0.176
     2   6 C    3.945 --    34 C    0.979     1 N    0.974    43 O    0.929
                             3 C    0.928
     3   6 C    3.871 --     4 C    1.614     5 N    1.250     2 C    0.928
     4   8 C    1.930 --     3 C    1.614     5 N    0.162
     5   7 N    3.371 --     3 C    1.250     6 C    0.974    44 O    0.892
                             4 C    0.162
     6   6 C    3.935 --    37 C    1.001     5 N    0.974    45 O    0.940
                            29 C    0.881
     7   6 C    3.888 --     9 C    1.693     1 N    1.205     8 C    0.927
     8   6 C    3.928 --    11 C    0.971    10 N    0.961    46 O    0.932
                             7 C    0.927
     9   8 C    1.997 --     7 C    1.693     1 N    0.176
    10   7 N    3.350 --    12 C    1.242     8 C    0.961    47 O    0.887
                            15 C    0.169
    11   6 C    3.961 --    13 C    1.013     8 C    0.971    48 O    0.957
                            49 O    0.953
    12   6 C    3.887 --    15 C    1.655    10 N    1.242    14 C    0.923
    13   6 C    3.971 --    11 C    1.013    16 C    1.006    51 O    0.958
                            50 O    0.957
    14   6 C    3.935 --    17 N    0.977    18 C    0.973    52 O    0.941
                            12 C    0.923
    15   8 C    1.944 --    12 C    1.655    10 N    0.169
    16   6 C    3.962 --    13 C    1.006    19 C    0.989    53 O    0.960
                            54 O    0.954
    17   7 N    3.317 --    20 C    1.187    14 C    0.977    55 O    0.901
                            24 C    0.154
    18   6 C    3.964 --    14 C    0.973    21 C    0.971    57 O    0.952
                            56 O    0.938
    19   6 C    3.951 --    22 N    1.026    16 C    0.989    58 O    0.957
                            59 O    0.951
    20   6 C    3.862 --    24 C    1.647    17 N    1.187    23 C    0.947
    21   6 C    3.878 --    25 C    1.668    26 N    1.208    18 C    0.971
    22   7 N    2.952 --    19 C    1.026    60 O    0.937    61 O    0.935
    23   6 C    3.928 --    28 C    0.982    20 C    0.947    27 N    0.942
                            62 O    0.926
    24   8 C    1.931 --    20 C    1.647    17 N    0.154
    25   8 C    1.942 --    21 C    1.668    26 N    0.164
    26   7 N    3.237 --    21 C    1.208    63 O    0.915    64 O    0.914
                            25 C    0.164
    27   7 N    3.246 --    29 C    1.203    23 C    0.942    65 O    0.850
                            31 C    0.149
    28   6 C    3.953 --    23 C    0.982    66 O    0.958    67 O    0.937
                            30 C    0.916
    29   6 C    3.867 --    31 C    1.702    27 N    1.203     6 C    0.881
    30   6 C    3.870 --    32 C    1.727    33 N    1.189    28 C    0.916
    31   8 C    1.974 --    29 C    1.702    27 N    0.149
    32   8 C    2.001 --    30 C    1.727    33 N    0.157
    33   7 N    3.210 --    30 C    1.189    68 O    0.915    69 O    0.913
                            32 C    0.157
    34   6 C    3.971 --    36 C    1.009    35 C    0.989     2 C    0.979
                            70 O    0.939
    35   6 C    3.954 --    34 C    0.989    73 O    0.975    72 O    0.974
                            71 O    0.973
    36   6 C    3.959 --    34 C    1.009    76 O    0.974    74 O    0.972
                            75 O    0.967
    37   6 C    3.963 --    38 C    1.003     6 C    1.001    77 O    0.948
                            78 O    0.945
    38   6 C    3.958 --    37 C    1.003    80 O    0.953    79 O    0.953
                            39 C    0.937
    39   6 C    3.866 --    40 C    1.679    41 N    1.217    38 C    0.937
    40   8 C    1.945 --    39 C    1.679    41 N    0.164
    41   7 N    3.245 --    39 C    1.217    82 O    0.919    81 O    0.911
                            40 C    0.164
    42   1 O    0.912 --     1 N    0.865
    43   1 O    0.983 --     2 C    0.929
    44   1 O    0.924 --     5 N    0.892
    45   1 O    0.984 --     6 C    0.940
    46   1 O    0.985 --     8 C    0.932
    47   1 O    0.936 --    10 N    0.887
    48   1 O    0.990 --    11 C    0.957
    49   1 O    0.989 --    11 C    0.953
    50   1 O    0.992 --    13 C    0.957
    51   1 O    0.992 --    13 C    0.958
    52   1 O    0.984 --    14 C    0.941
    53   1 O    0.992 --    16 C    0.960
    54   1 O    0.993 --    16 C    0.954
    55   1 O    0.928 --    17 N    0.901
    56   1 O    0.986 --    18 C    0.938
    57   1 O    0.990 --    18 C    0.952
    58   1 O    0.990 --    19 C    0.957
    59   1 O    0.990 --    19 C    0.951
    60   1 O    0.954 --    22 N    0.937
    61   1 O    0.951 --    22 N    0.935
    62   1 O    0.972 --    23 C    0.926
    63   1 O    0.937 --    26 N    0.915
    64   1 O    0.938 --    26 N    0.914
    65   1 O    0.910 --    27 N    0.850
    66   1 O    0.988 --    28 C    0.958
    67   1 O    0.979 --    28 C    0.937
    68   1 O    0.938 --    33 N    0.915
    69   1 O    0.937 --    33 N    0.913
    70   1 O    0.986 --    34 C    0.939
    71   1 O    0.993 --    35 C    0.973
    72   1 O    0.994 --    35 C    0.974
    73   1 O    0.989 --    35 C    0.975
    74   1 O    0.995 --    36 C    0.972
    75   1 O    0.988 --    36 C    0.967
    76   1 O    0.994 --    36 C    0.974
    77   1 O    0.988 --    37 C    0.948
    78   1 O    0.987 --    37 C    0.945
    79   1 O    0.988 --    38 C    0.953
    80   1 O    0.984 --    38 C    0.953
    81   1 O    0.934 --    41 N    0.911
    82   1 O    0.941 --    41 N    0.919
 ---------------------------------------------------------------------------

Topologies differ in total number of bonds
Writing topology from bond orders to xtbtopo.mol

Atomic dipole moments (in atomic units):
---------------------------------------------------------
     #    Z                 x            y            z
---------------------------------------------------------
           total    -2.012204     3.707241    -3.110499
---------------------------------------------------------
         |total|     5.240973    13.321226 Debye


           -------------------------------------------------
          | TOTAL ENERGY            -2033.930911735472 Eh   |
          | GRADIENT NORM               0.361204489211 Eh/α |
           -------------------------------------------------

------------------------------------------------------------------------
 * finished run on 2026/05/23 at 12:48:23.061     
------------------------------------------------------------------------
 total:
 * wall-time:     0 d,  0 h,  0 min, 11.644 sec
 *  cpu-time:     0 d,  0 h,  0 min, 27.662 sec
 * ratio c/w:     2.376 speedup
 SCF:
 * wall-time:     0 d,  0 h,  0 min, 11.295 sec
 *  cpu-time:     0 d,  0 h,  0 min, 27.376 sec
 * ratio c/w:     2.424 speedup

normal termination of xtb
