      -----------------------------------------------------------      
     |                   =====================                   |     
     |                           x T B                           |     
     |                   =====================                   |     
     |                         S. Grimme                         |     
     |          Mulliken Center for Theoretical Chemistry        |     
     |                    University of Bonn                     |     
      -----------------------------------------------------------      

   * xtb version 6.7.1 (26dd68d) compiled by 'froitzheim@fs7' on 2026-05-14

   xtb is free software: you can redistribute it and/or modify it under
   the terms of the GNU Lesser General Public License as published by
   the Free Software Foundation, either version 3 of the License, or
   (at your option) any later version.
   
   xtb is distributed in the hope that it will be useful,
   but WITHOUT ANY WARRANTY; without even the implied warranty of
   MERCHANTABILITY or FITNESS FOR A PARTICULAR PURPOSE.  See the
   GNU Lesser General Public License for more details.
   
   Cite this work as:
   * C. Bannwarth, E. Caldeweyher, S. Ehlert, A. Hansen, P. Pracht,
     J. Seibert, S. Spicher, S. Grimme, WIREs Comput. Mol. Sci., 2020, 11,
     e01493. DOI: 10.1002/wcms.1493
   
   for g-xTB:
   * T. Froitzheim, M. Müller, A. Hansen, S. Grimme, ChemRxiv, 2025, preprint.
     DOI: 10.26434/chemrxiv-2025-bjxv
   for GFN2-xTB:
   * C. Bannwarth, S. Ehlert and S. Grimme., J. Chem. Theory Comput., 2019,
     15, 1652-1671. DOI: 10.1021/acs.jctc.8b01176
   for GFN1-xTB:
   * S. Grimme, C. Bannwarth, P. Shushkov, J. Chem. Theory Comput., 2017,
     13, 1989-2009. DOI: 10.1021/acs.jctc.7b00118
   for GFN0-xTB:
   * P. Pracht, E. Caldeweyher, S. Ehlert, S. Grimme, ChemRxiv, 2019, preprint.
     DOI: 10.26434/chemrxiv.8326202.v1
   for GFN-FF:
   * S. Spicher and S. Grimme, Angew. Chem. Int. Ed., 2020, 59, 15665-15673.
     DOI: 10.1002/anie.202004239
   
   for ALPB and GBSA implicit solvation:
   * S. Ehlert, M. Stahn, S. Spicher, S. Grimme, J. Chem. Theory Comput.,
     2021, 17, 4250-4261. DOI: 10.1021/acs.jctc.1c00471
   
   for ddCOSMO and CPCM-X implicit solvation:
   * M. Stahn, S. Ehlert, S. Grimme, J. Phys. Chem. A,
     2023, XX, XXXX-XXXX. DOI: 10.1021/acs.jpca.3c04382
   
   for DFT-D4:
   * E. Caldeweyher, C. Bannwarth and S. Grimme, J. Chem. Phys., 2017,
     147, 034112. DOI: 10.1063/1.4993215
   * E. Caldeweyher, S. Ehlert, A. Hansen, H. Neugebauer, S. Spicher,
     C. Bannwarth and S. Grimme, J. Chem. Phys., 2019, 150, 154122.
     DOI: 10.1063/1.5090222
   * E. Caldeweyher, J.-M. Mewes, S. Ehlert and S. Grimme, Phys. Chem. Chem. Phys.
     2020, 22, 8499-8512. DOI: 10.1039/D0CP00502A
   
   for sTDA-xTB:
   * S. Grimme and C. Bannwarth, J. Chem. Phys., 2016, 145, 054103.
     DOI: 10.1063/1.4959605
   
   in the mass-spec context:
   * V. Asgeirsson, C. Bauer and S. Grimme, Chem. Sci., 2017, 8, 4879.
     DOI: 10.1039/c7sc00601b
   * J. Koopman and S. Grimme, ACS Omega 2019, 4, 12, 15120-15133.
     DOI: 10.1021/acsomega.9b02011
   
   for metadynamics refer to:
   * S. Grimme, J. Chem. Theory Comput., 2019, 155, 2847-2862
     DOI: 10.1021/acs.jctc.9b00143
   
   for SPH calculations refer to:
   * S. Spicher and S. Grimme, J. Chem. Theory Comput., 2021, 17, 1701-1714
     DOI: 10.1021/acs.jctc.0c01306
   
   for ONIOM refer to:
   * C. Plett, A. Katbashev, S. Ehlert, S. Grimme, M. Bursch,
     Phys. Chem. Chem. Phys., 2023, 25, 17860-17868. DOI: 10.1039/D3CP02178E
   
   for DIPRO refer to:
   * J. Kohn, N. Gildemeister, S. Grimme, D. Fazzi, A. Hansen,
     J. Chem. Phys. 159, 144106 (2023). DOI: 10.1063/5.0167484
   
   for PTB refer to:
   * S. Grimme, M. Mueller, A. Hansen, J. Chem. Phys., 2023, 158, 124111.
     DOI: 10.1063/5.0137838
   
   with help from (in alphabetical order)
   P. Atkinson, C. Bannwarth, F. Bohle, G. Brandenburg, E. Caldeweyher,
   M. Checinski, S. Dohm, S. Ehlert, S. Ehrlich, M. Friede, T. Froitzheim,
   I. Gerasimov, C. Hölzer, A. Katbashev, J. Kohn, J. Koopman, C. Lavigne,
   S. Lehtola, F. März, M. Müller, F. Musil, H. Neugebauer, J. Pisarek,
   C. Plett, P. Pracht, F. Pultar, J. Seibert, P. Shushkov, S. Spicher,
   M. Stahn, M. Steiner, T. Strunk, J. Stückrath, T. Rose, and J. Unsleber
   
 * started run on 2026/05/23 at 13:00:01.398     
   ID    Z sym.   atoms
    1    7 N      1, 5, 10, 18, 28, 30, 37-39, 41, 47, 48, 56
    2    6 C      2, 3, 6-8, 11-14, 16, 17, 19-25, 27, 29, 31-34, 36, 40,
                  42-45, 49, 51-55
    3    8 O      4, 9, 15, 26, 35, 46, 50
    4    1 H      57-115

           -------------------------------------------------
          |                Calculation Setup                |
           -------------------------------------------------

          program call               : /home/xchen/software/xtb-6.7.1-gxtb/bin/xtb /home/xchen/Test/benchmark/md_sampled/03_6_0978_0/snap_0190.xyz --charge 0 --gxtb --norestart
          coordinate file            : /home/xchen/Test/benchmark/md_sampled/03_6_0978_0/snap_0190.xyz
          omp threads                :                    48

core increment energy         -2.3949795228626E+03 Eh
dispersion energy              2.3996079657560E-02 Eh
molecular charge               0.0000000000000E+00 e
number of electrons            3.0999999999720E+02 e
number of unpaired electrons   0.0000000000000E+00 e
wavefunction                   restricted
integral cutoff                2.6907767250513E+01 bohr
energy convergence             1.0000000000000E-06 Eh
density convergence            2.0000000000000E-05 e

------------------------------------------------------------
  cycle        total energy    energy error   density error
------------------------------------------------------------
      1     -2644.390470371  -2.4943494E+02   0.0000000E+00
      2     -2644.797289557  -4.0681919E-01   1.8540807E-02
      3     -2645.057029487  -2.5973993E-01   1.4686539E-02
      4     -2645.615509406  -5.5847992E-01   1.1693999E-02
      5     -2645.625827607  -1.0318201E-02   8.9383303E-04
      6     -2645.626621443  -7.9383654E-04   1.7032125E-04
      7     -2645.626701755  -8.0311769E-05   5.3587943E-05
      8     -2645.626705938  -4.1833073E-06   1.4820504E-05
      9     -2645.626706483  -5.4478110E-07   3.8678156E-06
------------------------------------------------------------

electronic energy             -2.5067117970025E+02 Eh
total energy                  -2.6456267064832E+03 Eh

Post processing:
 | Mayer-Wiberg bond orders
 | Molecular Multipole Moments

 total:                                  23.347 sec
 - increment                              0.000 sec (  0%)
 - repulsion                              0.010 sec (  0%)
 - dispersion                             0.336 sec (  1%)
 - coulomb                                0.142 sec (  0%)
 - exchange                               0.006 sec (  0%)
 - hamiltonian                           11.427 sec ( 48%)
 - acp                                    0.178 sec (  0%)
 - post processing                        0.115 sec (  0%)
 - scc                                    9.866 sec ( 42%)
 - coulomb gradient                       0.274 sec (  1%)
 - dispersion gradient                    0.103 sec (  0%)
 - exchange gradient                      0.147 sec (  0%)
 - repulsion gradient                     0.006 sec (  0%)
 - acp gradient                           0.339 sec (  1%)
 - hamiltonian gradient                   0.505 sec (  2%)
 - gradient                               1.373 sec (  5%)

         :::::::::::::::::::::::::::::::::::::::::::::::::::::
         ::                     SUMMARY                     ::
         :::::::::::::::::::::::::::::::::::::::::::::::::::::
         :: total energy           -2645.626706483193 Eh    ::
         :: gradient norm              0.430786194903 Eh/a0 ::
         :: HOMO-LUMO gap              8.812566441636 eV    ::
         ::.................................................::
         :: add. restraining           0.000000000000 Eh    ::
         :: total charge               0.000000000000 e     ::
         :::::::::::::::::::::::::::::::::::::::::::::::::::::

           -------------------------------------------------
          |                Property Printout                |
           -------------------------------------------------

    * Orbital Energies and Occupations
------------------------------------------------------------------
      #    Occupation            Energy/Eh            Energy/eV
------------------------------------------------------------------
      1        2.0000           -1.3487490             -36.7013
    ...           ...                  ...                  ...
    143        2.0000           -0.3762904             -10.2394
    144        2.0000           -0.3756345             -10.2215
    145        2.0000           -0.3740165             -10.1775
    146        2.0000           -0.3705259             -10.0825
    147        2.0000           -0.3686793             -10.0323
    148        2.0000           -0.3683357             -10.0229
    149        2.0000           -0.3669648              -9.9856
    150        2.0000           -0.3624053              -9.8615
    151        2.0000           -0.3607908              -9.8176
    152        2.0000           -0.3477914              -9.4639
    153        2.0000           -0.3443229              -9.3695
    154        2.0000           -0.3395270              -9.2390
    155        2.0000           -0.3383914              -9.2081 (HOMO)
    156                         -0.0145355              -0.3955 (LUMO)
    157                          0.0010878               0.0296
    158                          0.0050642               0.1378
    159                          0.0163361               0.4445
    160                          0.0170644               0.4643
    161                          0.0205917               0.5603
    162                          0.0413133               1.1242
    163                          0.0452405               1.2311
    164                          0.0615463               1.6748
    165                          0.0671762               1.8280
    166                          0.1057217               2.8768
    ...                                ...                  ...
    283                          0.8901037              24.2210
------------------------------------------------------------------
               HL-Gap            0.3238558 Eh            8.8126 eV
------------------------------------------------------------------

Atomic charges and shell populations (in atomic units):
------------------------------------------------------
     #    Z                q          p(s)       p(p)
------------------------------------------------------
     1    7 N      -0.305829      1.351178   3.954651
     2    6 C      -0.040532      1.124172   2.916360
     3    6 C       0.430814      1.109955   2.459232
     4    8 O      -0.535287      1.851650   4.683637
     5    7 N      -0.341288      1.379512   3.961776
     6    6 C       0.005940      1.149590   2.844470
     7    6 C       0.415592      1.121839   2.462569
     8    6 C       0.001823      1.124683   2.873495
     9    8 O      -0.543222      1.865174   4.678048
    10    7 N      -0.369109      1.376359   3.992750
    11    6 C      -0.172927      1.153100   3.019826
    12    6 C       0.420741      1.127655   2.451604
    13    6 C      -0.019749      1.120217   2.899532
    14    6 C       0.016855      1.135044   2.848101
    15    8 O      -0.510894      1.852987   4.657907
    16    6 C      -0.123639      1.144102   2.979537
    17    6 C      -0.118462      1.151754   2.966708
    18    7 N      -0.352278      1.377237   3.975041
    19    6 C      -0.171993      1.147137   3.024856
    20    6 C      -0.088745      1.153111   2.935634
    21    6 C      -0.104012      1.153081   2.950931
    22    6 C       0.396882      1.107577   2.495541
    23    6 C      -0.206817      1.162623   3.044194
    24    6 C      -0.116064      1.144823   2.971241
    25    6 C       0.015496      1.117674   2.866830
    26    8 O      -0.530784      1.855768   4.675017
    27    6 C      -0.055535      1.134544   2.920992
    28    7 N      -0.370128      1.367874   4.002254
    29    6 C      -0.179497      1.145290   3.034207
    30    7 N      -0.380042      1.366972   4.013069
    31    6 C       0.455613      1.106628   2.437759
    32    6 C      -0.175778      1.159224   3.016554
    33    6 C       0.282619      1.100392   2.616989
    34    6 C      -0.004705      1.120688   2.884017
    35    8 O      -0.494158      1.849838   4.644320
    36    6 C      -0.073531      1.132723   2.940807
    37    7 N      -0.533671      1.618347   3.915324
    38    7 N      -0.486807      1.400235   4.086572
    39    7 N      -0.232855      1.326297   3.906558
    40    6 C      -0.169784      1.139993   3.029790
    41    7 N      -0.368081      1.403603   3.964478
    42    6 C      -0.063029      1.137996   2.925032
    43    6 C       0.420666      1.126929   2.452406
    44    6 C      -0.171361      1.158096   3.013265
    45    6 C       0.273944      1.090547   2.635509
    46    8 O      -0.551802      1.851629   4.700173
    47    7 N      -0.547064      1.570421   3.976643
    48    7 N      -0.459770      1.459283   4.000487
    49    6 C       0.069502      1.123964   2.806534
    50    8 O      -0.557971      1.822083   4.735887
    51    6 C      -0.256486      1.172363   3.084123
    52    6 C      -0.178527      1.146446   3.032080
    53    6 C      -0.188505      1.151473   3.037032
    54    6 C      -0.185674      1.166037   3.019636
    55    6 C      -0.090639      1.155049   2.935591
    56    7 N      -0.506839      1.492833   4.014007
    57    1 H       0.269784      0.730216
    58    1 H       0.145700      0.854300
    59    1 H       0.283213      0.716787
    60    1 H       0.122646      0.877354
    61    1 H       0.129928      0.870072
    62    1 H       0.282887      0.717113
    63    1 H       0.062436      0.937564
    64    1 H       0.145561      0.854439
    65    1 H       0.117716      0.882284
    66    1 H       0.111143      0.888857
    67    1 H       0.128494      0.871506
    68    1 H       0.263627      0.736373
    69    1 H       0.121903      0.878097
    70    1 H       0.109631      0.890369
    71    1 H       0.106362      0.893638
    72    1 H       0.100345      0.899655
    73    1 H       0.116360      0.883640
    74    1 H       0.116634      0.883366
    75    1 H       0.124567      0.875433
    76    1 H       0.118233      0.881767
    77    1 H       0.095842      0.904158
    78    1 H       0.100666      0.899334
    79    1 H       0.264418      0.735582
    80    1 H       0.087618      0.912382
    81    1 H       0.137694      0.862306
    82    1 H       0.261574      0.738426
    83    1 H       0.120264      0.879736
    84    1 H       0.094012      0.905988
    85    1 H       0.111083      0.888917
    86    1 H       0.087527      0.912473
    87    1 H       0.104822      0.895178
    88    1 H       0.214164      0.785836
    89    1 H       0.247594      0.752406
    90    1 H       0.256103      0.743897
    91    1 H       0.106529      0.893471
    92    1 H       0.093115      0.906885
    93    1 H       0.248945      0.751055
    94    1 H       0.121362      0.878638
    95    1 H       0.094973      0.905027
    96    1 H       0.097312      0.902688
    97    1 H       0.110509      0.889491
    98    1 H       0.229841      0.770159
    99    1 H       0.225621      0.774379
   100    1 H       0.250626      0.749374
   101    1 H       0.114640      0.885360
   102    1 H       0.355652      0.644348
   103    1 H       0.114701      0.885299
   104    1 H       0.119899      0.880101
   105    1 H       0.075880      0.924120
   106    1 H       0.099259      0.900741
   107    1 H       0.111076      0.888924
   108    1 H       0.113947      0.886053
   109    1 H       0.123022      0.876978
   110    1 H       0.083291      0.916709
   111    1 H       0.083733      0.916267
   112    1 H       0.089779      0.910221
   113    1 H       0.086128      0.913872
   114    1 H       0.206167      0.793833
   115    1 H       0.210824      0.789176
------------------------------------------------------


Wiberg/Mayer (AO) data.
largest (>0.10) Wiberg bond orders for each atom

 ---------------------------------------------------------------------------
     #   Z sym  total        # sym  WBO       # sym  WBO       # sym  WBO
 ---------------------------------------------------------------------------
     1   7 N    3.364 --     7 C    1.235     2 C    1.000    57 O    0.882
                             9 C    0.154
     2   6 C    3.933 --     1 N    1.000    49 C    0.979    58 O    0.921
                             3 C    0.882
     3   6 C    3.854 --     4 C    1.669     5 N    1.201     2 C    0.882
     4   8 C    1.965 --     3 C    1.669     5 N    0.148
     5   7 N    3.307 --     3 C    1.201     6 C    0.968    59 O    0.885
                             4 C    0.148
     6   6 C    3.919 --    52 C    1.005     5 N    0.968    60 O    0.941
                            43 C    0.854
     7   6 C    3.855 --     9 C    1.620     1 N    1.235     8 C    0.924
     8   6 C    3.944 --    10 N    0.988    11 C    0.975    61 O    0.930
                             7 C    0.924
     9   8 C    1.942 --     7 C    1.620     1 N    0.154
    10   7 N    3.267 --    12 C    1.157     8 C    0.988    62 O    0.866
                            15 C    0.146
    11   6 C    3.956 --    13 C    1.002     8 C    0.975    63 O    0.956
                            64 O    0.932
    12   6 C    3.835 --    15 C    1.719    10 N    1.157    14 C    0.884
    13   6 C    3.978 --    16 C    1.447    17 C    1.372    11 C    1.002
                            24 C    0.115
    14   6 C    3.925 --    19 C    0.997    18 N    0.959    65 O    0.924
                            12 C    0.884
    15   8 C    2.006 --    12 C    1.719    10 N    0.146
    16   6 C    3.967 --    13 C    1.447    20 C    1.406    66 O    0.951
                            21 C    0.111
    17   6 C    3.963 --    21 C    1.464    13 C    1.372    67 O    0.941
                            20 C    0.128
    18   7 N    3.285 --    22 C    1.198    14 C    0.959    68 O    0.873
                            26 C    0.159
    19   6 C    3.958 --    23 C    1.002    14 C    0.997    70 O    0.954
                            69 O    0.953
    20   6 C    3.967 --    24 C    1.451    16 C    1.406    71 O    0.954
                            17 C    0.128
    21   6 C    3.969 --    17 C    1.464    24 C    1.417    72 O    0.951
                            16 C    0.111
    22   6 C    3.875 --    26 C    1.669    18 N    1.198    25 C    0.944
    23   6 C    3.957 --    19 C    1.002    27 C    0.975    74 O    0.960
                            73 O    0.960
    24   6 C    3.969 --    20 C    1.451    21 C    1.417    75 O    0.953
                            13 C    0.115
    25   6 C    3.936 --    29 C    1.006    22 C    0.944    28 N    0.943
                            76 O    0.930
    26   8 C    1.936 --    22 C    1.669    18 N    0.159
    27   6 C    3.934 --    30 N    1.009    23 C    0.975    78 O    0.952
                            77 O    0.950
    28   7 N    3.254 --    31 C    1.160    25 C    0.943    79 O    0.896
                            35 C    0.150
    29   6 C    3.961 --    25 C    1.006    32 C    1.006    80 O    0.941
                            81 O    0.940
    30   7 N    3.195 --    33 C    1.102    27 C    1.009    82 O    0.889
                            37 N    0.107
    31   6 C    3.849 --    35 C    1.737    28 N    1.160    34 C    0.864
    32   6 C    3.958 --    29 C    1.006    36 C    0.990    84 O    0.962
                            83 O    0.953
    33   6 C    3.929 --    37 N    1.685    38 N    1.105    30 N    1.102
    34   6 C    3.939 --    40 C    1.000    39 N    0.981    85 O    0.931
                            31 C    0.864
    35   8 C    2.017 --    31 C    1.737    28 N    0.150
    36   6 C    3.929 --    32 C    0.990    41 N    0.987    86 O    0.956
                            87 O    0.946
    37   7 N    2.865 --    33 C    1.685    88 O    0.920    30 N    0.107
                            38 N    0.101
    38   7 N    3.096 --    33 C    1.105    90 O    0.916    89 O    0.914
                            37 N    0.101
    39   7 N    3.411 --    43 C    1.221    34 C    0.981    42 C    0.942
                            46 C    0.152
    40   6 C    3.965 --    44 C    1.006    34 C    1.000    92 O    0.956
                            91 O    0.950
    41   7 N    3.191 --    45 C    1.113    36 C    0.987    93 O    0.892
                            47 N    0.114
    42   6 C    3.909 --    44 C    0.994    94 O    0.953    95 O    0.951
                            39 N    0.942
    43   6 C    3.836 --    46 C    1.651    39 N    1.221     6 C    0.854
    44   6 C    3.958 --    40 C    1.006    42 C    0.994    96 O    0.960
                            97 O    0.954
    45   6 C    3.941 --    47 N    1.712    41 N    1.113    48 N    1.079
    46   8 C    1.963 --    43 C    1.651    39 N    0.152
    47   7 N    2.881 --    45 C    1.712    98 O    0.908    41 N    0.114
    48   7 N    3.069 --    45 C    1.079    99 O    0.919   100 O    0.917
    49   6 C    3.911 --    51 C    0.993     2 C    0.979    50 C    0.948
                           101 O    0.940
    50   8 C    1.876 --    49 C    0.948   102 O    0.846
    51   6 C    3.952 --    49 C    0.993   105 O    0.978   103 O    0.968
                           104 O    0.967
    52   6 C    3.964 --     6 C    1.005    53 C    0.998   107 O    0.957
                           106 O    0.956
    53   6 C    3.958 --    54 C    1.004    52 C    0.998   109 O    0.956
                           108 O    0.955
    54   6 C    3.964 --    53 C    1.004    55 C    0.998   111 O    0.961
                           110 O    0.954
    55   6 C    3.947 --    56 N    1.002    54 C    0.998   113 O    0.967
                           112 O    0.961
    56   7 N    2.947 --    55 C    1.002   114 O    0.950   115 O    0.943
    57   1 O    0.927 --     1 N    0.882
    58   1 O    0.979 --     2 C    0.921
    59   1 O    0.920 --     5 N    0.885
    60   1 O    0.985 --     6 C    0.941
    61   1 O    0.983 --     8 C    0.930
    62   1 O    0.920 --    10 N    0.866
    63   1 O    0.996 --    11 C    0.956
    64   1 O    0.979 --    11 C    0.932
    65   1 O    0.986 --    14 C    0.924
    66   1 O    0.988 --    16 C    0.951
    67   1 O    0.983 --    17 C    0.941
    68   1 O    0.931 --    18 N    0.873
    69   1 O    0.985 --    19 C    0.953
    70   1 O    0.988 --    19 C    0.954
    71   1 O    0.989 --    20 C    0.954
    72   1 O    0.990 --    21 C    0.951
    73   1 O    0.986 --    23 C    0.960
    74   1 O    0.986 --    23 C    0.960
    75   1 O    0.984 --    24 C    0.953
    76   1 O    0.986 --    25 C    0.930
    77   1 O    0.991 --    27 C    0.950
    78   1 O    0.990 --    27 C    0.952
    79   1 O    0.930 --    28 N    0.896
    80   1 O    0.992 --    29 C    0.941
    81   1 O    0.981 --    29 C    0.940
    82   1 O    0.932 --    30 N    0.889
    83   1 O    0.986 --    32 C    0.953
    84   1 O    0.991 --    32 C    0.962
    85   1 O    0.988 --    34 C    0.931
    86   1 O    0.992 --    36 C    0.956
    87   1 O    0.989 --    36 C    0.946
    88   1 O    0.954 --    37 N    0.920
    89   1 O    0.939 --    38 N    0.914
    90   1 O    0.934 --    38 N    0.916
    91   1 O    0.989 --    40 C    0.950
    92   1 O    0.991 --    40 C    0.956
    93   1 O    0.938 --    41 N    0.892
    94   1 O    0.985 --    42 C    0.953
    95   1 O    0.991 --    42 C    0.951
    96   1 O    0.991 --    44 C    0.960
    97   1 O    0.988 --    44 C    0.954
    98   1 O    0.947 --    47 N    0.908
    99   1 O    0.949 --    48 N    0.919
   100   1 O    0.937 --    48 N    0.917
   101   1 O    0.987 --    49 C    0.940
   102   1 O    0.874 --    50 C    0.846
   103   1 O    0.987 --    51 C    0.968
   104   1 O    0.986 --    51 C    0.967
   105   1 O    0.994 --    51 C    0.978
   106   1 O    0.990 --    52 C    0.956
   107   1 O    0.988 --    52 C    0.957
   108   1 O    0.987 --    53 C    0.955
   109   1 O    0.985 --    53 C    0.956
   110   1 O    0.993 --    54 C    0.954
   111   1 O    0.993 --    54 C    0.961
   112   1 O    0.992 --    55 C    0.961
   113   1 O    0.993 --    55 C    0.967
   114   1 O    0.957 --    56 N    0.950
   115   1 O    0.956 --    56 N    0.943
 ---------------------------------------------------------------------------

Topologies differ in total number of bonds
Writing topology from bond orders to xtbtopo.mol

Atomic dipole moments (in atomic units):
---------------------------------------------------------
     #    Z                 x            y            z
---------------------------------------------------------
           total     3.674361    -1.861146    -0.056408
---------------------------------------------------------
         |total|     4.119220    10.470012 Debye


           -------------------------------------------------
          | TOTAL ENERGY            -2645.626706483193 Eh   |
          | GRADIENT NORM               0.430786194903 Eh/α |
           -------------------------------------------------

------------------------------------------------------------------------
 * finished run on 2026/05/23 at 13:00:25.452     
------------------------------------------------------------------------
 total:
 * wall-time:     0 d,  0 h,  0 min, 24.053 sec
 *  cpu-time:     0 d,  0 h,  0 min, 54.065 sec
 * ratio c/w:     2.248 speedup
 SCF:
 * wall-time:     0 d,  0 h,  0 min, 23.742 sec
 *  cpu-time:     0 d,  0 h,  0 min, 53.529 sec
 * ratio c/w:     2.255 speedup

normal termination of xtb
