      -----------------------------------------------------------      
     |                   =====================                   |     
     |                           x T B                           |     
     |                   =====================                   |     
     |                         S. Grimme                         |     
     |          Mulliken Center for Theoretical Chemistry        |     
     |                    University of Bonn                     |     
      -----------------------------------------------------------      

   * xtb version 6.7.1 (26dd68d) compiled by 'froitzheim@fs7' on 2026-05-14

   xtb is free software: you can redistribute it and/or modify it under
   the terms of the GNU Lesser General Public License as published by
   the Free Software Foundation, either version 3 of the License, or
   (at your option) any later version.
   
   xtb is distributed in the hope that it will be useful,
   but WITHOUT ANY WARRANTY; without even the implied warranty of
   MERCHANTABILITY or FITNESS FOR A PARTICULAR PURPOSE.  See the
   GNU Lesser General Public License for more details.
   
   Cite this work as:
   * C. Bannwarth, E. Caldeweyher, S. Ehlert, A. Hansen, P. Pracht,
     J. Seibert, S. Spicher, S. Grimme, WIREs Comput. Mol. Sci., 2020, 11,
     e01493. DOI: 10.1002/wcms.1493
   
   for g-xTB:
   * T. Froitzheim, M. Müller, A. Hansen, S. Grimme, ChemRxiv, 2025, preprint.
     DOI: 10.26434/chemrxiv-2025-bjxv
   for GFN2-xTB:
   * C. Bannwarth, S. Ehlert and S. Grimme., J. Chem. Theory Comput., 2019,
     15, 1652-1671. DOI: 10.1021/acs.jctc.8b01176
   for GFN1-xTB:
   * S. Grimme, C. Bannwarth, P. Shushkov, J. Chem. Theory Comput., 2017,
     13, 1989-2009. DOI: 10.1021/acs.jctc.7b00118
   for GFN0-xTB:
   * P. Pracht, E. Caldeweyher, S. Ehlert, S. Grimme, ChemRxiv, 2019, preprint.
     DOI: 10.26434/chemrxiv.8326202.v1
   for GFN-FF:
   * S. Spicher and S. Grimme, Angew. Chem. Int. Ed., 2020, 59, 15665-15673.
     DOI: 10.1002/anie.202004239
   
   for ALPB and GBSA implicit solvation:
   * S. Ehlert, M. Stahn, S. Spicher, S. Grimme, J. Chem. Theory Comput.,
     2021, 17, 4250-4261. DOI: 10.1021/acs.jctc.1c00471
   
   for ddCOSMO and CPCM-X implicit solvation:
   * M. Stahn, S. Ehlert, S. Grimme, J. Phys. Chem. A,
     2023, XX, XXXX-XXXX. DOI: 10.1021/acs.jpca.3c04382
   
   for DFT-D4:
   * E. Caldeweyher, C. Bannwarth and S. Grimme, J. Chem. Phys., 2017,
     147, 034112. DOI: 10.1063/1.4993215
   * E. Caldeweyher, S. Ehlert, A. Hansen, H. Neugebauer, S. Spicher,
     C. Bannwarth and S. Grimme, J. Chem. Phys., 2019, 150, 154122.
     DOI: 10.1063/1.5090222
   * E. Caldeweyher, J.-M. Mewes, S. Ehlert and S. Grimme, Phys. Chem. Chem. Phys.
     2020, 22, 8499-8512. DOI: 10.1039/D0CP00502A
   
   for sTDA-xTB:
   * S. Grimme and C. Bannwarth, J. Chem. Phys., 2016, 145, 054103.
     DOI: 10.1063/1.4959605
   
   in the mass-spec context:
   * V. Asgeirsson, C. Bauer and S. Grimme, Chem. Sci., 2017, 8, 4879.
     DOI: 10.1039/c7sc00601b
   * J. Koopman and S. Grimme, ACS Omega 2019, 4, 12, 15120-15133.
     DOI: 10.1021/acsomega.9b02011
   
   for metadynamics refer to:
   * S. Grimme, J. Chem. Theory Comput., 2019, 155, 2847-2862
     DOI: 10.1021/acs.jctc.9b00143
   
   for SPH calculations refer to:
   * S. Spicher and S. Grimme, J. Chem. Theory Comput., 2021, 17, 1701-1714
     DOI: 10.1021/acs.jctc.0c01306
   
   for ONIOM refer to:
   * C. Plett, A. Katbashev, S. Ehlert, S. Grimme, M. Bursch,
     Phys. Chem. Chem. Phys., 2023, 25, 17860-17868. DOI: 10.1039/D3CP02178E
   
   for DIPRO refer to:
   * J. Kohn, N. Gildemeister, S. Grimme, D. Fazzi, A. Hansen,
     J. Chem. Phys. 159, 144106 (2023). DOI: 10.1063/5.0167484
   
   for PTB refer to:
   * S. Grimme, M. Mueller, A. Hansen, J. Chem. Phys., 2023, 158, 124111.
     DOI: 10.1063/5.0137838
   
   with help from (in alphabetical order)
   P. Atkinson, C. Bannwarth, F. Bohle, G. Brandenburg, E. Caldeweyher,
   M. Checinski, S. Dohm, S. Ehlert, S. Ehrlich, M. Friede, T. Froitzheim,
   I. Gerasimov, C. Hölzer, A. Katbashev, J. Kohn, J. Koopman, C. Lavigne,
   S. Lehtola, F. März, M. Müller, F. Musil, H. Neugebauer, J. Pisarek,
   C. Plett, P. Pracht, F. Pultar, J. Seibert, P. Shushkov, S. Spicher,
   M. Stahn, M. Steiner, T. Strunk, J. Stückrath, T. Rose, and J. Unsleber
   
 * started run on 2026/05/23 at 12:45:24.732     
   ID    Z sym.   atoms
    1    7 N      1, 5, 10, 17, 23, 25, 28, 34, 41, 46, 50
    2    6 C      2, 3, 6-8, 11-15, 18-21, 24, 26, 27, 29-32, 35-38, 40,
                  42-45, 48, 49, 51-53
    3    8 O      4, 9, 16, 22, 33, 39, 47
    4    1 H      54-110

           -------------------------------------------------
          |                Calculation Setup                |
           -------------------------------------------------

          program call               : /home/xchen/software/xtb-6.7.1-gxtb/bin/xtb /home/xchen/Test/benchmark/md_sampled/07_7_0083_0/snap_0102.xyz --charge 0 --gxtb --norestart
          coordinate file            : /home/xchen/Test/benchmark/md_sampled/07_7_0083_0/snap_0102.xyz
          omp threads                :                    48

core increment energy         -2.2595336125909E+03 Eh
dispersion energy              2.6167186756375E-02 Eh
molecular charge               0.0000000000000E+00 e
number of electrons            2.9399999999735E+02 e
number of unpaired electrons   0.0000000000000E+00 e
wavefunction                   restricted
integral cutoff                2.6907767250513E+01 bohr
energy convergence             1.0000000000000E-06 Eh
density convergence            2.0000000000000E-05 e

------------------------------------------------------------
  cycle        total energy    energy error   density error
------------------------------------------------------------
      1     -2495.639462707  -2.3613202E+02   0.0000000E+00
      2     -2496.045209308  -4.0574660E-01   1.8986873E-02
      3     -2496.296828843  -2.5161954E-01   1.5064213E-02
      4     -2496.812986835  -5.1615799E-01   1.1996727E-02
      5     -2496.824136303  -1.1149468E-02   9.1726011E-04
      6     -2496.824972909  -8.3660599E-04   1.8805824E-04
      7     -2496.825067273  -9.4363539E-05   6.5530247E-05
      8     -2496.825074499  -7.2266440E-06   1.8435243E-05
      9     -2496.825075536  -1.0364753E-06   5.0849383E-06
     10     -2496.825075662  -1.2558769E-07   1.3320023E-06
------------------------------------------------------------

electronic energy             -2.3731763025739E+02 Eh
total energy                  -2.4968250756615E+03 Eh

Post processing:
 | Mayer-Wiberg bond orders
 | Molecular Multipole Moments

 total:                                  27.044 sec
 - increment                              0.000 sec (  0%)
 - repulsion                              0.010 sec (  0%)
 - dispersion                             0.620 sec (  2%)
 - coulomb                                0.285 sec (  1%)
 - exchange                               0.007 sec (  0%)
 - hamiltonian                            0.733 sec (  2%)
 - acp                                    0.514 sec (  1%)
 - spin polarization                      0.000 sec (  0%)
 - post processing                        0.296 sec (  1%)
 - scc                                   23.015 sec ( 85%)
 - coulomb gradient                       0.142 sec (  0%)
 - dispersion gradient                    0.126 sec (  0%)
 - exchange gradient                      0.198 sec (  0%)
 - repulsion gradient                     0.023 sec (  0%)
 - acp gradient                           0.508 sec (  1%)
 - hamiltonian gradient                   0.857 sec (  3%)
 - gradient                               1.854 sec (  6%)

         :::::::::::::::::::::::::::::::::::::::::::::::::::::
         ::                     SUMMARY                     ::
         :::::::::::::::::::::::::::::::::::::::::::::::::::::
         :: total energy           -2496.825075661531 Eh    ::
         :: gradient norm              0.429336714492 Eh/a0 ::
         :: HOMO-LUMO gap              9.009718698445 eV    ::
         ::.................................................::
         :: add. restraining           0.000000000000 Eh    ::
         :: total charge              -0.000000000000 e     ::
         :::::::::::::::::::::::::::::::::::::::::::::::::::::

           -------------------------------------------------
          |                Property Printout                |
           -------------------------------------------------

    * Orbital Energies and Occupations
------------------------------------------------------------------
      #    Occupation            Energy/Eh            Energy/eV
------------------------------------------------------------------
      1        2.0000           -1.3375080             -36.3954
    ...           ...                  ...                  ...
    135        2.0000           -0.3697334             -10.0610
    136        2.0000           -0.3690861             -10.0433
    137        2.0000           -0.3650020              -9.9322
    138        2.0000           -0.3626282              -9.8676
    139        2.0000           -0.3601725              -9.8008
    140        2.0000           -0.3596002              -9.7852
    141        2.0000           -0.3550476              -9.6613
    142        2.0000           -0.3476684              -9.4605
    143        2.0000           -0.3429504              -9.3322
    144        2.0000           -0.3428571              -9.3296
    145        2.0000           -0.3383403              -9.2067
    146        2.0000           -0.3326095              -9.0508
    147        2.0000           -0.3280165              -8.9258 (HOMO)
    148                          0.0030845               0.0839 (LUMO)
    149                          0.0118496               0.3224
    150                          0.0194548               0.5294
    151                          0.0325308               0.8852
    152                          0.0374101               1.0180
    153                          0.0383531               1.0436
    154                          0.0408023               1.1103
    155                          0.0523302               1.4240
    156                          0.1023235               2.7844
    157                          0.1383368               3.7643
    158                          0.1464644               3.9855
    ...                                ...                  ...
    269                          0.8116024              22.0848
------------------------------------------------------------------
               HL-Gap            0.3311011 Eh            9.0097 eV
------------------------------------------------------------------

Atomic charges and shell populations (in atomic units):
------------------------------------------------------
     #    Z                q          p(s)       p(p)
------------------------------------------------------
     1    7 N      -0.342950      1.345245   3.997705
     2    6 C      -0.095497      1.140298   2.955199
     3    6 C       0.425921      1.098593   2.475486
     4    8 O      -0.534002      1.851596   4.682406
     5    7 N      -0.340118      1.364834   3.975284
     6    6 C      -0.020122      1.147755   2.872367
     7    6 C       0.415942      1.117622   2.466436
     8    6 C       0.020486      1.148471   2.831043
     9    8 O      -0.527631      1.853418   4.674213
    10    7 N      -0.299546      1.390557   3.908989
    11    6 C      -0.190215      1.154170   3.036045
    12    6 C      -0.037264      1.148201   2.889063
    13    6 C       0.416740      1.130343   2.452917
    14    6 C      -0.190433      1.157680   3.032754
    15    6 C       0.024078      1.115631   2.860291
    16    8 O      -0.507586      1.863819   4.643767
    17    7 N      -0.324251      1.355932   3.968320
    18    6 C      -0.149938      1.150627   2.999311
    19    6 C       0.434248      1.106266   2.459486
    20    6 C       0.034163      1.132690   2.833147
    21    6 C       0.000502      1.165273   2.834225
    22    8 O      -0.532344      1.857934   4.674410
    23    7 N      -0.328038      1.557777   3.770260
    24    6 C      -0.074241      1.163146   2.911096
    25    7 N      -0.243768      1.368499   3.875269
    26    6 C      -0.153519      1.164456   2.989063
    27    6 C       0.086998      1.142995   2.770008
    28    7 N      -0.289146      1.380649   3.908497
    29    6 C      -0.069337      1.132734   2.936603
    30    6 C       0.415826      1.097113   2.487061
    31    6 C      -0.188226      1.139670   3.048557
    32    6 C       0.006921      1.131710   2.861369
    33    8 O      -0.562337      1.856187   4.706150
    34    7 N      -0.335277      1.360096   3.975181
    35    6 C      -0.197887      1.156624   3.041263
    36    6 C       0.409295      1.101084   2.489621
    37    6 C      -0.187122      1.152011   3.035111
    38    6 C       0.018211      1.106579   2.875210
    39    8 O      -0.563085      1.857943   4.705142
    40    6 C      -0.202399      1.138046   3.064353
    41    7 N      -0.371523      1.376320   3.995203
    42    6 C      -0.185727      1.166168   3.019558
    43    6 C      -0.092679      1.158693   2.933985
    44    6 C       0.447666      1.090035   2.462299
    45    6 C      -0.199031      1.162793   3.036239
    46    7 N      -0.494490      1.511538   3.982952
    47    8 O      -0.465585      1.843197   4.622388
    48    6 C      -0.174678      1.146324   3.028354
    49    6 C      -0.090121      1.132531   2.957590
    50    7 N      -0.514461      1.412586   4.101875
    51    6 C      -0.133811      1.153082   2.980729
    52    6 C      -0.239920      1.174952   3.064968
    53    6 C      -0.242168      1.182816   3.059352
    54    1 H       0.268514      0.731486
    55    1 H       0.164567      0.835433
    56    1 H       0.098472      0.901528
    57    1 H       0.257562      0.742438
    58    1 H       0.121562      0.878438
    59    1 H       0.137922      0.862078
    60    1 H       0.120257      0.879743
    61    1 H       0.112580      0.887420
    62    1 H       0.114003      0.885997
    63    1 H       0.071803      0.928197
    64    1 H       0.110190      0.889810
    65    1 H       0.100185      0.899815
    66    1 H       0.115380      0.884620
    67    1 H       0.275755      0.724245
    68    1 H       0.137609      0.862391
    69    1 H       0.139842      0.860158
    70    1 H       0.128211      0.871789
    71    1 H       0.109499      0.890501
    72    1 H       0.115778      0.884222
    73    1 H       0.104250      0.895750
    74    1 H       0.124393      0.875607
    75    1 H       0.257783      0.742217
    76    1 H       0.102869      0.897131
    77    1 H       0.118378      0.881622
    78    1 H       0.117997      0.882003
    79    1 H       0.111804      0.888196
    80    1 H       0.108220      0.891780
    81    1 H       0.284894      0.715106
    82    1 H       0.117854      0.882146
    83    1 H       0.126037      0.873963
    84    1 H       0.080177      0.919823
    85    1 H       0.112852      0.887148
    86    1 H       0.124971      0.875029
    87    1 H       0.103393      0.896607
    88    1 H       0.092773      0.907227
    89    1 H       0.252066      0.747934
    90    1 H       0.121832      0.878168
    91    1 H       0.091530      0.908470
    92    1 H       0.097894      0.902106
    93    1 H       0.100840      0.899160
    94    1 H       0.119493      0.880507
    95    1 H       0.085681      0.914319
    96    1 H       0.202194      0.797806
    97    1 H       0.210074      0.789926
    98    1 H       0.098175      0.901825
    99    1 H       0.089237      0.910763
   100    1 H       0.065144      0.934856
   101    1 H       0.105065      0.894935
   102    1 H       0.222771      0.777229
   103    1 H       0.209870      0.790130
   104    1 H       0.091670      0.908330
   105    1 H       0.128779      0.871221
   106    1 H       0.091482      0.908518
   107    1 H       0.092557      0.907443
   108    1 H       0.105804      0.894196
   109    1 H       0.082953      0.917047
   110    1 H       0.080029      0.919971
------------------------------------------------------


Wiberg/Mayer (AO) data.
largest (>0.10) Wiberg bond orders for each atom

 ---------------------------------------------------------------------------
     #   Z sym  total        # sym  WBO       # sym  WBO       # sym  WBO
 ---------------------------------------------------------------------------
     1   7 N    3.324 --     7 C    1.205     2 C    0.987    54 O    0.889
                             9 C    0.158
     2   6 C    3.913 --     1 N    0.987    56 O    0.954     3 C    0.932
                            55 O    0.921
     3   6 C    3.870 --     4 C    1.649     5 N    1.226     2 C    0.932
     4   8 C    1.961 --     3 C    1.649     5 N    0.169
     5   7 N    3.331 --     3 C    1.226     6 C    0.943    57 O    0.904
                             4 C    0.169
     6   6 C    3.921 --    51 C    0.984     5 N    0.943    58 O    0.940
                            44 C    0.887
     7   6 C    3.854 --     9 C    1.673     1 N    1.205     8 C    0.893
     8   6 C    3.919 --    11 C    0.985    10 N    0.945    59 O    0.942
                             7 C    0.893
     9   8 C    1.976 --     7 C    1.673     1 N    0.158
    10   7 N    3.277 --    13 C    1.122    12 C    0.960     8 C    0.945
                            16 C    0.124
    11   6 C    3.957 --    14 C    0.996     8 C    0.985    61 O    0.961
                            60 O    0.960
    12   6 C    3.921 --    14 C    1.001    10 N    0.960    62 O    0.955
                            63 O    0.953
    13   6 C    3.841 --    16 C    1.717    10 N    1.122    15 C    0.911
    14   6 C    3.961 --    12 C    1.001    11 C    0.996    64 O    0.964
                            65 O    0.962
    15   6 C    3.939 --    17 N    0.996    18 C    0.967    66 O    0.936
                            13 C    0.911
    16   8 C    1.967 --    13 C    1.717    10 N    0.124
    17   7 N    3.336 --    19 C    1.196    15 C    0.996    67 O    0.876
                            22 C    0.160
    18   6 C    3.948 --    20 C    1.001    15 C    0.967    68 O    0.944
                            69 O    0.944
    19   6 C    3.863 --    22 C    1.674    17 N    1.196    21 C    0.923
    20   6 C    3.948 --    24 C    1.603    23 N    1.208    18 C    1.001
    21   6 C    3.909 --    26 C    0.981    70 O    0.942    19 C    0.923
                            25 N    0.913
    22   8 C    1.948 --    19 C    1.674    17 N    0.160
    23   7 N    3.014 --    27 C    1.619    20 C    1.208
    24   6 C    3.880 --    20 C    1.603    28 N    1.126    71 O    0.948
                            27 C    0.112
    25   7 N    3.386 --    30 C    1.255    29 C    0.948    21 C    0.913
                            33 C    0.159
    26   6 C    3.951 --    31 C    1.004    21 C    0.981    73 O    0.958
                            72 O    0.955
    27   6 C    3.919 --    23 N    1.619    28 N    1.195    74 O    0.946
                            24 C    0.112
    28   7 N    3.416 --    27 C    1.195    24 C    1.126    75 O    0.903
    29   6 C    3.921 --    31 C    1.002    77 O    0.954    76 O    0.954
                            25 N    0.948
    30   6 C    3.877 --    33 C    1.613    25 N    1.255    32 C    0.927
    31   6 C    3.964 --    26 C    1.004    29 C    1.002    79 O    0.960
                            78 O    0.958
    32   6 C    3.927 --    35 C    0.990    34 N    0.942    80 O    0.931
                            30 C    0.927
    33   8 C    1.908 --    30 C    1.613    25 N    0.159
    34   7 N    3.336 --    36 C    1.246    32 C    0.942    81 O    0.874
                            39 C    0.162
    35   6 C    3.955 --    32 C    0.990    37 C    0.981    82 O    0.958
                            83 O    0.955
    36   6 C    3.879 --    39 C    1.620    34 N    1.246    38 C    0.934
    37   6 C    3.966 --    40 C    1.032    35 C    0.981    85 O    0.957
                            84 O    0.956
    38   6 C    3.935 --    42 C    0.984    41 N    0.973    36 C    0.934
                            86 O    0.924
    39   8 C    1.907 --    36 C    1.620    34 N    0.162
    40   6 C    3.969 --    37 C    1.032    43 C    0.990    87 O    0.953
                            88 O    0.943
    41   7 N    3.272 --    44 C    1.140    38 C    0.973    89 O    0.896
                            47 C    0.157
    42   6 C    3.953 --    38 C    0.984    45 C    0.984    91 O    0.962
                            90 O    0.953
    43   6 C    3.938 --    46 N    0.999    40 C    0.990    92 O    0.962
                            93 O    0.956
    44   6 C    3.868 --    47 C    1.769    41 N    1.140     6 C    0.887
    45   6 C    3.960 --    48 C    1.011    42 C    0.984    95 O    0.966
                            94 O    0.957
    46   7 N    2.942 --    43 C    0.999    96 O    0.947    97 O    0.945
    47   8 C    2.058 --    44 C    1.769    41 N    0.157
    48   6 C    3.969 --    45 C    1.011    49 C    0.992    98 O    0.959
                            99 O    0.957
    49   6 C    3.954 --    50 N    1.012    48 C    0.992   100 O    0.970
                           101 O    0.954
    50   7 N    2.943 --    49 C    1.012   103 O    0.946   102 O    0.934
    51   6 C    3.965 --    53 C    0.994    52 C    0.993     6 C    0.984
                           104 O    0.947
    52   6 C    3.946 --    51 C    0.993   106 O    0.973   107 O    0.972
                           105 O    0.963
    53   6 C    3.955 --    51 C    0.994   109 O    0.975   110 O    0.974
                           108 O    0.971
    54   1 O    0.928 --     1 N    0.889
    55   1 O    0.973 --     2 C    0.921
    56   1 O    0.990 --     2 C    0.954
    57   1 O    0.934 --     5 N    0.904
    58   1 O    0.985 --     6 C    0.940
    59   1 O    0.981 --     8 C    0.942
    60   1 O    0.986 --    11 C    0.960
    61   1 O    0.987 --    11 C    0.961
    62   1 O    0.987 --    12 C    0.955
    63   1 O    0.995 --    12 C    0.953
    64   1 O    0.988 --    14 C    0.964
    65   1 O    0.990 --    14 C    0.962
    66   1 O    0.987 --    15 C    0.936
    67   1 O    0.924 --    17 N    0.876
    68   1 O    0.981 --    18 C    0.944
    69   1 O    0.980 --    18 C    0.944
    70   1 O    0.984 --    21 C    0.942
    71   1 O    0.988 --    24 C    0.948
    72   1 O    0.987 --    26 C    0.955
    73   1 O    0.989 --    26 C    0.958
    74   1 O    0.985 --    27 C    0.946
    75   1 O    0.934 --    28 N    0.903
    76   1 O    0.989 --    29 C    0.954
    77   1 O    0.986 --    29 C    0.954
    78   1 O    0.986 --    31 C    0.958
    79   1 O    0.987 --    31 C    0.960
    80   1 O    0.988 --    32 C    0.931
    81   1 O    0.919 --    34 N    0.874
    82   1 O    0.986 --    35 C    0.958
    83   1 O    0.984 --    35 C    0.955
    84   1 O    0.994 --    37 C    0.956
    85   1 O    0.987 --    37 C    0.957
    86   1 O    0.984 --    38 C    0.924
    87   1 O    0.989 --    40 C    0.953
    88   1 O    0.991 --    40 C    0.943
    89   1 O    0.936 --    41 N    0.896
    90   1 O    0.985 --    42 C    0.953
    91   1 O    0.992 --    42 C    0.962
    92   1 O    0.990 --    43 C    0.962
    93   1 O    0.990 --    43 C    0.956
    94   1 O    0.986 --    45 C    0.957
    95   1 O    0.993 --    45 C    0.966
    96   1 O    0.959 --    46 N    0.947
    97   1 O    0.956 --    46 N    0.945
    98   1 O    0.990 --    48 C    0.959
    99   1 O    0.992 --    48 C    0.957
   100   1 O    0.996 --    49 C    0.970
   101   1 O    0.989 --    49 C    0.954
   102   1 O    0.950 --    50 N    0.934
   103   1 O    0.956 --    50 N    0.946
   104   1 O    0.992 --    51 C    0.947
   105   1 O    0.983 --    52 C    0.963
   106   1 O    0.992 --    52 C    0.973
   107   1 O    0.991 --    52 C    0.972
   108   1 O    0.989 --    53 C    0.971
   109   1 O    0.993 --    53 C    0.975
   110   1 O    0.994 --    53 C    0.974
 ---------------------------------------------------------------------------

Topologies differ in total number of bonds
Writing topology from bond orders to xtbtopo.mol

Atomic dipole moments (in atomic units):
---------------------------------------------------------
     #    Z                 x            y            z
---------------------------------------------------------
           total     1.161043    -5.334296     0.279845
---------------------------------------------------------
         |total|     5.466356    13.894092 Debye


           -------------------------------------------------
          | TOTAL ENERGY            -2496.825075661531 Eh   |
          | GRADIENT NORM               0.429336714492 Eh/α |
           -------------------------------------------------

------------------------------------------------------------------------
 * finished run on 2026/05/23 at 12:45:53.007     
------------------------------------------------------------------------
 total:
 * wall-time:     0 d,  0 h,  0 min, 28.274 sec
 *  cpu-time:     0 d,  0 h,  0 min, 41.340 sec
 * ratio c/w:     1.462 speedup
 SCF:
 * wall-time:     0 d,  0 h,  0 min, 27.678 sec
 *  cpu-time:     0 d,  0 h,  0 min, 40.830 sec
 * ratio c/w:     1.475 speedup

normal termination of xtb
