      -----------------------------------------------------------      
     |                   =====================                   |     
     |                           x T B                           |     
     |                   =====================                   |     
     |                         S. Grimme                         |     
     |          Mulliken Center for Theoretical Chemistry        |     
     |                    University of Bonn                     |     
      -----------------------------------------------------------      

   * xtb version 6.7.1 (26dd68d) compiled by 'froitzheim@fs7' on 2026-05-14

   xtb is free software: you can redistribute it and/or modify it under
   the terms of the GNU Lesser General Public License as published by
   the Free Software Foundation, either version 3 of the License, or
   (at your option) any later version.
   
   xtb is distributed in the hope that it will be useful,
   but WITHOUT ANY WARRANTY; without even the implied warranty of
   MERCHANTABILITY or FITNESS FOR A PARTICULAR PURPOSE.  See the
   GNU Lesser General Public License for more details.
   
   Cite this work as:
   * C. Bannwarth, E. Caldeweyher, S. Ehlert, A. Hansen, P. Pracht,
     J. Seibert, S. Spicher, S. Grimme, WIREs Comput. Mol. Sci., 2020, 11,
     e01493. DOI: 10.1002/wcms.1493
   
   for g-xTB:
   * T. Froitzheim, M. Müller, A. Hansen, S. Grimme, ChemRxiv, 2025, preprint.
     DOI: 10.26434/chemrxiv-2025-bjxv
   for GFN2-xTB:
   * C. Bannwarth, S. Ehlert and S. Grimme., J. Chem. Theory Comput., 2019,
     15, 1652-1671. DOI: 10.1021/acs.jctc.8b01176
   for GFN1-xTB:
   * S. Grimme, C. Bannwarth, P. Shushkov, J. Chem. Theory Comput., 2017,
     13, 1989-2009. DOI: 10.1021/acs.jctc.7b00118
   for GFN0-xTB:
   * P. Pracht, E. Caldeweyher, S. Ehlert, S. Grimme, ChemRxiv, 2019, preprint.
     DOI: 10.26434/chemrxiv.8326202.v1
   for GFN-FF:
   * S. Spicher and S. Grimme, Angew. Chem. Int. Ed., 2020, 59, 15665-15673.
     DOI: 10.1002/anie.202004239
   
   for ALPB and GBSA implicit solvation:
   * S. Ehlert, M. Stahn, S. Spicher, S. Grimme, J. Chem. Theory Comput.,
     2021, 17, 4250-4261. DOI: 10.1021/acs.jctc.1c00471
   
   for ddCOSMO and CPCM-X implicit solvation:
   * M. Stahn, S. Ehlert, S. Grimme, J. Phys. Chem. A,
     2023, XX, XXXX-XXXX. DOI: 10.1021/acs.jpca.3c04382
   
   for DFT-D4:
   * E. Caldeweyher, C. Bannwarth and S. Grimme, J. Chem. Phys., 2017,
     147, 034112. DOI: 10.1063/1.4993215
   * E. Caldeweyher, S. Ehlert, A. Hansen, H. Neugebauer, S. Spicher,
     C. Bannwarth and S. Grimme, J. Chem. Phys., 2019, 150, 154122.
     DOI: 10.1063/1.5090222
   * E. Caldeweyher, J.-M. Mewes, S. Ehlert and S. Grimme, Phys. Chem. Chem. Phys.
     2020, 22, 8499-8512. DOI: 10.1039/D0CP00502A
   
   for sTDA-xTB:
   * S. Grimme and C. Bannwarth, J. Chem. Phys., 2016, 145, 054103.
     DOI: 10.1063/1.4959605
   
   in the mass-spec context:
   * V. Asgeirsson, C. Bauer and S. Grimme, Chem. Sci., 2017, 8, 4879.
     DOI: 10.1039/c7sc00601b
   * J. Koopman and S. Grimme, ACS Omega 2019, 4, 12, 15120-15133.
     DOI: 10.1021/acsomega.9b02011
   
   for metadynamics refer to:
   * S. Grimme, J. Chem. Theory Comput., 2019, 155, 2847-2862
     DOI: 10.1021/acs.jctc.9b00143
   
   for SPH calculations refer to:
   * S. Spicher and S. Grimme, J. Chem. Theory Comput., 2021, 17, 1701-1714
     DOI: 10.1021/acs.jctc.0c01306
   
   for ONIOM refer to:
   * C. Plett, A. Katbashev, S. Ehlert, S. Grimme, M. Bursch,
     Phys. Chem. Chem. Phys., 2023, 25, 17860-17868. DOI: 10.1039/D3CP02178E
   
   for DIPRO refer to:
   * J. Kohn, N. Gildemeister, S. Grimme, D. Fazzi, A. Hansen,
     J. Chem. Phys. 159, 144106 (2023). DOI: 10.1063/5.0167484
   
   for PTB refer to:
   * S. Grimme, M. Mueller, A. Hansen, J. Chem. Phys., 2023, 158, 124111.
     DOI: 10.1063/5.0137838
   
   with help from (in alphabetical order)
   P. Atkinson, C. Bannwarth, F. Bohle, G. Brandenburg, E. Caldeweyher,
   M. Checinski, S. Dohm, S. Ehlert, S. Ehrlich, M. Friede, T. Froitzheim,
   I. Gerasimov, C. Hölzer, A. Katbashev, J. Kohn, J. Koopman, C. Lavigne,
   S. Lehtola, F. März, M. Müller, F. Musil, H. Neugebauer, J. Pisarek,
   C. Plett, P. Pracht, F. Pultar, J. Seibert, P. Shushkov, S. Spicher,
   M. Stahn, M. Steiner, T. Strunk, J. Stückrath, T. Rose, and J. Unsleber
   
 * started run on 2026/05/23 at 12:40:28.580     
   ID    Z sym.   atoms
    1    7 N      1, 5, 10, 18, 29, 37, 45, 48
    2    6 C      2, 3, 6-8, 11-14, 16, 17, 19-25, 27, 28, 30-33, 35, 36,
                  38-43, 46, 47, 49-56
    3    8 O      4, 9, 15, 26, 34, 44
    4    1 H      57-114

           -------------------------------------------------
          |                Calculation Setup                |
           -------------------------------------------------

          program call               : /home/xchen/software/xtb-6.7.1-gxtb/bin/xtb /home/xchen/Test/benchmark/md_sampled/10_6_0573_0/snap_0082.xyz --charge 0 --gxtb --norestart
          coordinate file            : /home/xchen/Test/benchmark/md_sampled/10_6_0573_0/snap_0082.xyz
          omp threads                :                    48

core increment energy         -2.2833104851216E+03 Eh
dispersion energy              2.5399731364157E-02 Eh
molecular charge               0.0000000000000E+00 e
number of electrons            3.0199999999720E+02 e
number of unpaired electrons   0.0000000000000E+00 e
wavefunction                   restricted
integral cutoff                2.6907767250513E+01 bohr
energy convergence             1.0000000000000E-06 Eh
density convergence            2.0000000000000E-05 e

------------------------------------------------------------
  cycle        total energy    energy error   density error
------------------------------------------------------------
      1     -2523.658020502  -2.4037294E+02   0.0000000E+00
      2     -2524.018477404  -3.6045690E-01   1.8545459E-02
      3     -2524.237092247  -2.1861484E-01   1.4475426E-02
      4     -2524.666286992  -4.2919474E-01   1.1418685E-02
      5     -2524.675880600  -9.5936075E-03   1.0964731E-03
      6     -2524.676390612  -5.1001205E-04   1.6757324E-04
      7     -2524.676473041  -8.2429493E-05   9.1735515E-05
      8     -2524.676481383  -8.3416778E-06   1.8187117E-05
      9     -2524.676482452  -1.0686398E-06   5.7389808E-06
     10     -2524.676482571  -1.1933827E-07   1.2763074E-06
------------------------------------------------------------

electronic energy             -2.4139139718074E+02 Eh
total energy                  -2.5246764825710E+03 Eh

Post processing:
 | Mayer-Wiberg bond orders
 | Molecular Multipole Moments

 total:                                  19.246 sec
 - increment                              0.000 sec (  0%)
 - repulsion                              0.017 sec (  0%)
 - dispersion                             0.560 sec (  2%)
 - coulomb                                0.299 sec (  1%)
 - exchange                               0.013 sec (  0%)
 - hamiltonian                            0.700 sec (  3%)
 - acp                                    0.461 sec (  2%)
 - spin polarization                      0.000 sec (  0%)
 - post processing                        0.195 sec (  1%)
 - scc                                   15.403 sec ( 80%)
 - coulomb gradient                       0.124 sec (  0%)
 - dispersion gradient                    0.047 sec (  0%)
 - exchange gradient                      0.146 sec (  0%)
 - repulsion gradient                     0.011 sec (  0%)
 - acp gradient                           0.462 sec (  2%)
 - hamiltonian gradient                   0.970 sec (  5%)
 - gradient                               1.760 sec (  9%)

         :::::::::::::::::::::::::::::::::::::::::::::::::::::
         ::                     SUMMARY                     ::
         :::::::::::::::::::::::::::::::::::::::::::::::::::::
         :: total energy           -2524.676482570980 Eh    ::
         :: gradient norm              0.413517131171 Eh/a0 ::
         :: HOMO-LUMO gap              8.340116970088 eV    ::
         ::.................................................::
         :: add. restraining           0.000000000000 Eh    ::
         :: total charge              -0.000000000000 e     ::
         :::::::::::::::::::::::::::::::::::::::::::::::::::::

           -------------------------------------------------
          |                Property Printout                |
           -------------------------------------------------

    * Orbital Energies and Occupations
------------------------------------------------------------------
      #    Occupation            Energy/Eh            Energy/eV
------------------------------------------------------------------
      1        2.0000           -1.3437199             -36.5645
    ...           ...                  ...                  ...
    139        2.0000           -0.3765469             -10.2464
    140        2.0000           -0.3749521             -10.2030
    141        2.0000           -0.3735858             -10.1658
    142        2.0000           -0.3724052             -10.1337
    143        2.0000           -0.3670387              -9.9876
    144        2.0000           -0.3621578              -9.8548
    145        2.0000           -0.3523394              -9.5876
    146        2.0000           -0.3497111              -9.5161
    147        2.0000           -0.3476948              -9.4613
    148        2.0000           -0.3468201              -9.4375
    149        2.0000           -0.3343940              -9.0993
    150        2.0000           -0.3313400              -9.0162
    151        2.0000           -0.3193983              -8.6913 (HOMO)
    152                         -0.0129047              -0.3512 (LUMO)
    153                          0.0028023               0.0763
    154                          0.0104189               0.2835
    155                          0.0155974               0.4244
    156                          0.0245080               0.6669
    157                          0.0424601               1.1554
    158                          0.0433852               1.1806
    159                          0.0475312               1.2934
    160                          0.0537170               1.4617
    161                          0.0548212               1.4918
    162                          0.0566904               1.5426
    ...                                ...                  ...
    282                          0.9142969              24.8793
------------------------------------------------------------------
               HL-Gap            0.3064936 Eh            8.3401 eV
------------------------------------------------------------------

Atomic charges and shell populations (in atomic units):
------------------------------------------------------
     #    Z                q          p(s)       p(p)
------------------------------------------------------
     1    7 N      -0.292937      1.366467   3.926469
     2    6 C      -0.004633      1.137627   2.867006
     3    6 C       0.425485      1.096435   2.478080
     4    8 O      -0.526671      1.851262   4.675408
     5    7 N      -0.350672      1.387861   3.962811
     6    6 C       0.000123      1.137224   2.862653
     7    6 C       0.423997      1.106230   2.469772
     8    6 C      -0.003339      1.116525   2.886814
     9    8 O      -0.590172      1.853299   4.736873
    10    7 N      -0.313653      1.348056   3.965597
    11    6 C      -0.166805      1.147591   3.019214
    12    6 C       0.420942      1.105806   2.473252
    13    6 C      -0.023214      1.129865   2.893348
    14    6 C       0.010101      1.138952   2.850947
    15    8 O      -0.521979      1.856844   4.665136
    16    6 C      -0.107085      1.150720   2.956366
    17    6 C      -0.112032      1.156997   2.955035
    18    7 N      -0.363684      1.374771   3.988914
    19    6 C      -0.203506      1.160278   3.043228
    20    6 C      -0.103168      1.156376   2.946792
    21    6 C      -0.098227      1.153866   2.944361
    22    6 C       0.410559      1.097234   2.492207
    23    6 C      -0.135180      1.156007   2.979172
    24    6 C      -0.104446      1.160266   2.944181
    25    6 C      -0.009013      1.133842   2.875171
    26    8 O      -0.474019      1.848997   4.625022
    27    6 C      -0.261915      1.177834   3.084081
    28    6 C      -0.284093      1.172230   3.111863
    29    7 N      -0.336488      1.353329   3.983159
    30    6 C      -0.155354      1.159637   2.995717
    31    6 C       0.429335      1.096499   2.474166
    32    6 C      -0.037193      1.117155   2.920038
    33    6 C       0.007642      1.116755   2.875603
    34    8 O      -0.531680      1.856020   4.675660
    35    6 C      -0.117669      1.153917   2.963751
    36    6 C      -0.105800      1.140309   2.965490
    37    7 N      -0.337427      1.352083   3.985343
    38    6 C      -0.130582      1.157303   2.973279
    39    6 C      -0.102301      1.149484   2.952816
    40    6 C      -0.082334      1.141965   2.940369
    41    6 C       0.407201      1.092542   2.500257
    42    6 C       0.035511      1.109618   2.854871
    43    6 C      -0.086289      1.149756   2.936533
    44    8 O      -0.534487      1.857486   4.677001
    45    7 N      -0.324995      1.560941   3.764054
    46    6 C      -0.091240      1.145857   2.945383
    47    6 C       0.076913      1.123742   2.799345
    48    7 N      -0.248406      1.368135   3.880271
    49    6 C      -0.123319      1.155880   2.967439
    50    6 C      -0.285264      1.160082   3.125182
    51    6 C      -0.176515      1.161945   3.014570
    52    6 C      -0.266766      1.164050   3.102717
    53    6 C      -0.096149      1.159223   2.936926
    54    6 C      -0.246850      1.180700   3.066150
    55    6 C      -0.200018      1.142317   3.057701
    56    6 C      -0.257142      1.167003   3.090139
    57    1 H       0.263295      0.736705
    58    1 H       0.141556      0.858444
    59    1 H       0.269761      0.730239
    60    1 H       0.146085      0.853915
    61    1 H       0.116297      0.883703
    62    1 H       0.260554      0.739446
    63    1 H       0.097874      0.902126
    64    1 H       0.116799      0.883201
    65    1 H       0.147129      0.852871
    66    1 H       0.101566      0.898434
    67    1 H       0.112841      0.887159
    68    1 H       0.241956      0.758044
    69    1 H       0.089203      0.910797
    70    1 H       0.120429      0.879571
    71    1 H       0.110808      0.889192
    72    1 H       0.114678      0.885322
    73    1 H       0.094086      0.905914
    74    1 H       0.106509      0.893491
    75    1 H       0.154975      0.845025
    76    1 H       0.109786      0.890214
    77    1 H       0.088182      0.911818
    78    1 H       0.120468      0.879532
    79    1 H       0.085971      0.914029
    80    1 H       0.099639      0.900361
    81    1 H       0.100698      0.899302
    82    1 H       0.257308      0.742692
    83    1 H       0.095952      0.904048
    84    1 H       0.072400      0.927600
    85    1 H       0.140131      0.859869
    86    1 H       0.084445      0.915555
    87    1 H       0.112278      0.887722
    88    1 H       0.274637      0.725363
    89    1 H       0.116450      0.883550
    90    1 H       0.086353      0.913647
    91    1 H       0.112615      0.887385
    92    1 H       0.110748      0.889252
    93    1 H       0.118249      0.881751
    94    1 H       0.148437      0.851563
    95    1 H       0.120054      0.879946
    96    1 H       0.270198      0.729802
    97    1 H       0.088397      0.911603
    98    1 H       0.111325      0.888675
    99    1 H       0.091691      0.908309
   100    1 H       0.101931      0.898069
   101    1 H       0.135327      0.864673
   102    1 H       0.093705      0.906295
   103    1 H       0.089850      0.910150
   104    1 H       0.091234      0.908766
   105    1 H       0.100605      0.899395
   106    1 H       0.124310      0.875690
   107    1 H       0.095920      0.904080
   108    1 H       0.090060      0.909940
   109    1 H       0.077241      0.922759
   110    1 H       0.099807      0.900193
   111    1 H       0.101483      0.898517
   112    1 H       0.090786      0.909214
   113    1 H       0.070602      0.929398
   114    1 H       0.091229      0.908771
------------------------------------------------------


Wiberg/Mayer (AO) data.
largest (>0.10) Wiberg bond orders for each atom

 ---------------------------------------------------------------------------
     #   Z sym  total        # sym  WBO       # sym  WBO       # sym  WBO
 ---------------------------------------------------------------------------
     1   7 N    3.386 --     7 C    1.306     2 C    0.957    57 O    0.884
                             9 C    0.154
     2   6 C    3.910 --    49 C    0.961     1 N    0.957    58 O    0.926
                             3 C    0.906
     3   6 C    3.875 --     4 C    1.670     5 N    1.226     2 C    0.906
     4   8 C    1.964 --     3 C    1.670     5 N    0.155
     5   7 N    3.294 --     3 C    1.226     6 C    0.954    59 O    0.851
                             4 C    0.155
     6   6 C    3.922 --     5 N    0.954    53 C    0.952    41 C    0.947
                            60 O    0.934
     7   6 C    3.865 --     9 C    1.551     1 N    1.306     8 C    0.912
     8   6 C    3.944 --    11 C    0.983    10 N    0.969    61 O    0.942
                             7 C    0.912
     9   8 C    1.883 --     7 C    1.551     1 N    0.154
    10   7 N    3.322 --    12 C    1.230     8 C    0.969    62 O    0.889
                            15 C    0.152
    11   6 C    3.960 --    13 C    0.998     8 C    0.983    64 O    0.951
                            63 O    0.947
    12   6 C    3.862 --    15 C    1.673    10 N    1.230    14 C    0.879
    13   6 C    3.976 --    17 C    1.410    16 C    1.398    11 C    0.998
                            24 C    0.121
    14   6 C    3.918 --    19 C    0.988    18 N    0.977    65 O    0.929
                            12 C    0.879
    15   8 C    1.952 --    12 C    1.673    10 N    0.152
    16   6 C    3.968 --    20 C    1.462    13 C    1.398    66 O    0.948
                            21 C    0.106
    17   6 C    3.961 --    21 C    1.423    13 C    1.410    67 O    0.954
                            20 C    0.127
    18   7 N    3.288 --    22 C    1.162    14 C    0.977    68 O    0.892
                            26 C    0.153
    19   6 C    3.960 --    23 C    0.990    14 C    0.988    69 O    0.960
                            70 O    0.955
    20   6 C    3.967 --    16 C    1.462    24 C    1.397    71 O    0.956
                            17 C    0.127
    21   6 C    3.967 --    24 C    1.460    17 C    1.423    72 O    0.955
                            16 C    0.106
    22   6 C    3.879 --    26 C    1.728    18 N    1.162    25 C    0.916
    23   6 C    3.964 --    28 C    1.004    27 C    0.996    19 C    0.990
                            73 O    0.943
    24   6 C    3.965 --    21 C    1.460    20 C    1.397    74 O    0.957
                            13 C    0.121
    25   6 C    3.927 --    29 N    0.974    30 C    0.961    75 O    0.922
                            22 C    0.916
    26   8 C    2.014 --    22 C    1.728    18 N    0.153
    27   6 C    3.950 --    23 C    0.996    77 O    0.973    78 O    0.970
                            76 O    0.967
    28   6 C    3.958 --    23 C    1.004    80 O    0.975    81 O    0.973
                            79 O    0.973
    29   7 N    3.321 --    31 C    1.197    25 C    0.974    82 O    0.889
                            34 C    0.159
    30   6 C    3.966 --    32 C    1.013    25 C    0.961    83 O    0.958
                            84 O    0.953
    31   6 C    3.870 --    34 C    1.662    29 N    1.197    33 C    0.949
    32   6 C    3.981 --    36 C    1.412    35 C    1.392    30 C    1.013
                            43 C    0.120
    33   6 C    3.926 --    38 C    0.964    37 N    0.963    31 C    0.949
                            85 O    0.934
    34   8 C    1.942 --    31 C    1.662    29 N    0.159
    35   6 C    3.965 --    39 C    1.431    32 C    1.392    86 O    0.950
                            40 C    0.125
    36   6 C    3.970 --    40 C    1.452    32 C    1.412    87 O    0.948
                            39 C    0.110
    37   7 N    3.322 --    41 C    1.227    33 C    0.963    88 O    0.871
                            44 C    0.164
    38   6 C    3.954 --    42 C    1.001    33 C    0.964    89 O    0.944
                            90 O    0.937
    39   6 C    3.968 --    43 C    1.441    35 C    1.431    91 O    0.949
                            36 C    0.110
    40   6 C    3.970 --    36 C    1.452    43 C    1.416    92 O    0.951
                            35 C    0.125
    41   6 C    3.887 --    44 C    1.648    37 N    1.227     6 C    0.947
    42   6 C    3.950 --    46 C    1.530    45 N    1.279    38 C    1.001
    43   6 C    3.966 --    39 C    1.441    40 C    1.416    93 O    0.953
                            32 C    0.120
    44   8 C    1.925 --    41 C    1.648    37 N    0.164
    45   7 N    3.024 --    47 C    1.561    42 C    1.279
    46   6 C    3.892 --    42 C    1.530    48 N    1.206    94 O    0.944
                            47 C    0.130
    47   6 C    3.910 --    45 N    1.561    48 N    1.213    95 O    0.943
                            46 C    0.130
    48   7 N    3.487 --    47 C    1.213    46 C    1.206    96 O    0.893
    49   6 C    3.966 --    50 C    1.018    51 C    0.975     2 C    0.961
                            97 O    0.942
    50   6 C    3.955 --    49 C    1.018   100 O    0.970    98 O    0.963
                            99 O    0.963
    51   6 C    3.951 --    52 C    1.025    49 C    0.975   102 O    0.962
                           101 O    0.949
    52   6 C    3.963 --    51 C    1.025   103 O    0.973   104 O    0.973
                           105 O    0.967
    53   6 C    3.959 --    54 C    0.996    55 C    0.994     6 C    0.952
                           106 O    0.944
    54   6 C    3.957 --    53 C    0.996   109 O    0.978   107 O    0.973
                           108 O    0.972
    55   6 C    3.968 --    56 C    1.023    53 C    0.994   111 O    0.959
                           110 O    0.950
    56   6 C    3.960 --    55 C    1.023   114 O    0.972   113 O    0.970
                           112 O    0.969
    57   1 O    0.931 --     1 N    0.884
    58   1 O    0.980 --     2 C    0.926
    59   1 O    0.927 --     5 N    0.851
    60   1 O    0.979 --     6 C    0.934
    61   1 O    0.986 --     8 C    0.942
    62   1 O    0.932 --    10 N    0.889
    63   1 O    0.990 --    11 C    0.947
    64   1 O    0.986 --    11 C    0.951
    65   1 O    0.978 --    14 C    0.929
    66   1 O    0.990 --    16 C    0.948
    67   1 O    0.987 --    17 C    0.954
    68   1 O    0.941 --    18 N    0.892
    69   1 O    0.992 --    19 C    0.960
    70   1 O    0.985 --    19 C    0.955
    71   1 O    0.988 --    20 C    0.956
    72   1 O    0.987 --    21 C    0.955
    73   1 O    0.991 --    23 C    0.943
    74   1 O    0.989 --    24 C    0.957
    75   1 O    0.976 --    25 C    0.922
    76   1 O    0.988 --    27 C    0.967
    77   1 O    0.992 --    27 C    0.973
    78   1 O    0.985 --    27 C    0.970
    79   1 O    0.993 --    28 C    0.973
    80   1 O    0.990 --    28 C    0.975
    81   1 O    0.990 --    28 C    0.973
    82   1 O    0.934 --    29 N    0.889
    83   1 O    0.991 --    30 C    0.958
    84   1 O    0.995 --    30 C    0.953
    85   1 O    0.980 --    33 C    0.934
    86   1 O    0.993 --    35 C    0.950
    87   1 O    0.987 --    36 C    0.948
    88   1 O    0.925 --    37 N    0.871
    89   1 O    0.986 --    38 C    0.944
    90   1 O    0.993 --    38 C    0.937
    91   1 O    0.987 --    39 C    0.949
    92   1 O    0.988 --    40 C    0.951
    93   1 O    0.986 --    43 C    0.953
    94   1 O    0.978 --    46 C    0.944
    95   1 O    0.986 --    47 C    0.943
    96   1 O    0.927 --    48 N    0.893
    97   1 O    0.992 --    49 C    0.942
    98   1 O    0.988 --    50 C    0.963
    99   1 O    0.992 --    50 C    0.963
   100   1 O    0.990 --    50 C    0.970
   101   1 O    0.982 --    51 C    0.949
   102   1 O    0.991 --    51 C    0.962
   103   1 O    0.992 --    52 C    0.973
   104   1 O    0.992 --    52 C    0.973
   105   1 O    0.990 --    52 C    0.967
   106   1 O    0.985 --    53 C    0.944
   107   1 O    0.991 --    54 C    0.973
   108   1 O    0.992 --    54 C    0.972
   109   1 O    0.994 --    54 C    0.978
   110   1 O    0.990 --    55 C    0.950
   111   1 O    0.990 --    55 C    0.959
   112   1 O    0.992 --    56 C    0.969
   113   1 O    0.995 --    56 C    0.970
   114   1 O    0.992 --    56 C    0.972
 ---------------------------------------------------------------------------

Topologies differ in total number of bonds
Writing topology from bond orders to xtbtopo.mol

Atomic dipole moments (in atomic units):
---------------------------------------------------------
     #    Z                 x            y            z
---------------------------------------------------------
           total    -1.179884     3.012136    -4.081571
---------------------------------------------------------
         |total|     5.208101    13.237672 Debye


           -------------------------------------------------
          | TOTAL ENERGY            -2524.676482570980 Eh   |
          | GRADIENT NORM               0.413517131171 Eh/α |
           -------------------------------------------------

------------------------------------------------------------------------
 * finished run on 2026/05/23 at 12:40:48.916     
------------------------------------------------------------------------
 total:
 * wall-time:     0 d,  0 h,  0 min, 20.335 sec
 *  cpu-time:     0 d,  0 h,  0 min, 36.027 sec
 * ratio c/w:     1.772 speedup
 SCF:
 * wall-time:     0 d,  0 h,  0 min, 19.826 sec
 *  cpu-time:     0 d,  0 h,  0 min, 35.536 sec
 * ratio c/w:     1.792 speedup

normal termination of xtb
