      -----------------------------------------------------------      
     |                   =====================                   |     
     |                           x T B                           |     
     |                   =====================                   |     
     |                         S. Grimme                         |     
     |          Mulliken Center for Theoretical Chemistry        |     
     |                    University of Bonn                     |     
      -----------------------------------------------------------      

   * xtb version 6.7.1 (26dd68d) compiled by 'froitzheim@fs7' on 2026-05-14

   xtb is free software: you can redistribute it and/or modify it under
   the terms of the GNU Lesser General Public License as published by
   the Free Software Foundation, either version 3 of the License, or
   (at your option) any later version.
   
   xtb is distributed in the hope that it will be useful,
   but WITHOUT ANY WARRANTY; without even the implied warranty of
   MERCHANTABILITY or FITNESS FOR A PARTICULAR PURPOSE.  See the
   GNU Lesser General Public License for more details.
   
   Cite this work as:
   * C. Bannwarth, E. Caldeweyher, S. Ehlert, A. Hansen, P. Pracht,
     J. Seibert, S. Spicher, S. Grimme, WIREs Comput. Mol. Sci., 2020, 11,
     e01493. DOI: 10.1002/wcms.1493
   
   for g-xTB:
   * T. Froitzheim, M. Müller, A. Hansen, S. Grimme, ChemRxiv, 2025, preprint.
     DOI: 10.26434/chemrxiv-2025-bjxv
   for GFN2-xTB:
   * C. Bannwarth, S. Ehlert and S. Grimme., J. Chem. Theory Comput., 2019,
     15, 1652-1671. DOI: 10.1021/acs.jctc.8b01176
   for GFN1-xTB:
   * S. Grimme, C. Bannwarth, P. Shushkov, J. Chem. Theory Comput., 2017,
     13, 1989-2009. DOI: 10.1021/acs.jctc.7b00118
   for GFN0-xTB:
   * P. Pracht, E. Caldeweyher, S. Ehlert, S. Grimme, ChemRxiv, 2019, preprint.
     DOI: 10.26434/chemrxiv.8326202.v1
   for GFN-FF:
   * S. Spicher and S. Grimme, Angew. Chem. Int. Ed., 2020, 59, 15665-15673.
     DOI: 10.1002/anie.202004239
   
   for ALPB and GBSA implicit solvation:
   * S. Ehlert, M. Stahn, S. Spicher, S. Grimme, J. Chem. Theory Comput.,
     2021, 17, 4250-4261. DOI: 10.1021/acs.jctc.1c00471
   
   for ddCOSMO and CPCM-X implicit solvation:
   * M. Stahn, S. Ehlert, S. Grimme, J. Phys. Chem. A,
     2023, XX, XXXX-XXXX. DOI: 10.1021/acs.jpca.3c04382
   
   for DFT-D4:
   * E. Caldeweyher, C. Bannwarth and S. Grimme, J. Chem. Phys., 2017,
     147, 034112. DOI: 10.1063/1.4993215
   * E. Caldeweyher, S. Ehlert, A. Hansen, H. Neugebauer, S. Spicher,
     C. Bannwarth and S. Grimme, J. Chem. Phys., 2019, 150, 154122.
     DOI: 10.1063/1.5090222
   * E. Caldeweyher, J.-M. Mewes, S. Ehlert and S. Grimme, Phys. Chem. Chem. Phys.
     2020, 22, 8499-8512. DOI: 10.1039/D0CP00502A
   
   for sTDA-xTB:
   * S. Grimme and C. Bannwarth, J. Chem. Phys., 2016, 145, 054103.
     DOI: 10.1063/1.4959605
   
   in the mass-spec context:
   * V. Asgeirsson, C. Bauer and S. Grimme, Chem. Sci., 2017, 8, 4879.
     DOI: 10.1039/c7sc00601b
   * J. Koopman and S. Grimme, ACS Omega 2019, 4, 12, 15120-15133.
     DOI: 10.1021/acsomega.9b02011
   
   for metadynamics refer to:
   * S. Grimme, J. Chem. Theory Comput., 2019, 155, 2847-2862
     DOI: 10.1021/acs.jctc.9b00143
   
   for SPH calculations refer to:
   * S. Spicher and S. Grimme, J. Chem. Theory Comput., 2021, 17, 1701-1714
     DOI: 10.1021/acs.jctc.0c01306
   
   for ONIOM refer to:
   * C. Plett, A. Katbashev, S. Ehlert, S. Grimme, M. Bursch,
     Phys. Chem. Chem. Phys., 2023, 25, 17860-17868. DOI: 10.1039/D3CP02178E
   
   for DIPRO refer to:
   * J. Kohn, N. Gildemeister, S. Grimme, D. Fazzi, A. Hansen,
     J. Chem. Phys. 159, 144106 (2023). DOI: 10.1063/5.0167484
   
   for PTB refer to:
   * S. Grimme, M. Mueller, A. Hansen, J. Chem. Phys., 2023, 158, 124111.
     DOI: 10.1063/5.0137838
   
   with help from (in alphabetical order)
   P. Atkinson, C. Bannwarth, F. Bohle, G. Brandenburg, E. Caldeweyher,
   M. Checinski, S. Dohm, S. Ehlert, S. Ehrlich, M. Friede, T. Froitzheim,
   I. Gerasimov, C. Hölzer, A. Katbashev, J. Kohn, J. Koopman, C. Lavigne,
   S. Lehtola, F. März, M. Müller, F. Musil, H. Neugebauer, J. Pisarek,
   C. Plett, P. Pracht, F. Pultar, J. Seibert, P. Shushkov, S. Spicher,
   M. Stahn, M. Steiner, T. Strunk, J. Stückrath, T. Rose, and J. Unsleber
   
 * started run on 2026/05/23 at 08:13:38.491     
   ID    Z sym.   atoms
    1    7 N      1, 5, 10, 17, 23, 28, 35
    2    6 C      2, 3, 6-8, 11-14, 16, 20, 21, 24-26, 29, 31-34, 36-40
    3    8 O      4, 9, 15, 18, 19, 22, 27, 30
    4    1 H      41-70

           -------------------------------------------------
          |                Calculation Setup                |
           -------------------------------------------------

          program call               : /home/xchen/software/xtb-6.7.1-gxtb/bin/xtb /home/xchen/Test/benchmark/md_sampled/01_6_0109_n1/snap_0028.xyz --charge -1 --gxtb --norestart
          coordinate file            : /home/xchen/Test/benchmark/md_sampled/01_6_0109_n1/snap_0028.xyz
          omp threads                :                    48

core increment energy         -1.7791297691186E+03 Eh
dispersion energy              1.0231622248415E-02 Eh
molecular charge              -1.0000000000000E+00 e
number of electrons            2.1399999999800E+02 e
number of unpaired electrons   0.0000000000000E+00 e
wavefunction                   restricted
integral cutoff                2.6907767250513E+01 bohr
energy convergence             1.0000000000000E-06 Eh
density convergence            2.0000000000000E-05 e

------------------------------------------------------------
  cycle        total energy    energy error   density error
------------------------------------------------------------
      1     -1954.946429301  -1.7582689E+02   0.0000000E+00
      2     -1955.281955462  -3.3552616E-01   2.5247504E-02
      3     -1955.496009580  -2.1405412E-01   1.9910489E-02
      4     -1955.948458114  -4.5244853E-01   1.5770976E-02
      5     -1955.956021503  -7.5633886E-03   1.1351291E-03
      6     -1955.956574717  -5.5321427E-04   2.1106113E-04
      7     -1955.956630797  -5.6079877E-05   6.8587247E-05
      8     -1955.956635276  -4.4784363E-06   1.6540150E-05
      9     -1955.956635845  -5.6962796E-07   4.3087014E-06
------------------------------------------------------------

electronic energy             -1.7683709834879E+02 Eh
total energy                  -1.9559566358451E+03 Eh

Post processing:
 | Mayer-Wiberg bond orders
 | Molecular Multipole Moments

 total:                                  10.594 sec
 - increment                              0.000 sec (  0%)
 - repulsion                              0.015 sec (  0%)
 - dispersion                             0.318 sec (  3%)
 - coulomb                                0.109 sec (  1%)
 - exchange                               0.006 sec (  0%)
 - hamiltonian                            0.290 sec (  2%)
 - acp                                    0.193 sec (  1%)
 - spin polarization                      0.000 sec (  0%)
 - post processing                        0.458 sec (  4%)
 - scc                                    8.413 sec ( 79%)
 - coulomb gradient                       0.058 sec (  0%)
 - dispersion gradient                    0.050 sec (  0%)
 - exchange gradient                      0.455 sec (  4%)
 - repulsion gradient                     0.024 sec (  0%)
 - acp gradient                           0.228 sec (  2%)
 - hamiltonian gradient                   0.429 sec (  4%)
 - gradient                               1.244 sec ( 11%)

         :::::::::::::::::::::::::::::::::::::::::::::::::::::
         ::                     SUMMARY                     ::
         :::::::::::::::::::::::::::::::::::::::::::::::::::::
         :: total energy           -1955.956635845144 Eh    ::
         :: gradient norm              0.307773830086 Eh/a0 ::
         :: HOMO-LUMO gap              5.188920071770 eV    ::
         ::.................................................::
         :: add. restraining           0.000000000000 Eh    ::
         :: total charge              -1.000000000000 e     ::
         :::::::::::::::::::::::::::::::::::::::::::::::::::::

           -------------------------------------------------
          |                Property Printout                |
           -------------------------------------------------

    * Orbital Energies and Occupations
------------------------------------------------------------------
      #    Occupation            Energy/Eh            Energy/eV
------------------------------------------------------------------
      1        2.0000           -1.2599840             -34.2859
    ...           ...                  ...                  ...
     95        2.0000           -0.2997217              -8.1558
     96        2.0000           -0.2986908              -8.1278
     97        2.0000           -0.2976399              -8.0992
     98        2.0000           -0.2957505              -8.0478
     99        2.0000           -0.2861977              -7.7878
    100        2.0000           -0.2818221              -7.6688
    101        2.0000           -0.2795420              -7.6067
    102        2.0000           -0.2722102              -7.4072
    103        2.0000           -0.2686699              -7.3109
    104        2.0000           -0.2377803              -6.4703
    105        2.0000           -0.1989098              -5.4126
    106        2.0000           -0.1840737              -5.0089
    107        2.0000           -0.1429985              -3.8912 (HOMO)
    108                          0.0476908               1.2977 (LUMO)
    109                          0.0708424               1.9277
    110                          0.0821266               2.2348
    111                          0.0915148               2.4902
    112                          0.0966806               2.6308
    113                          0.1007548               2.7417
    114                          0.1086073               2.9554
    115                          0.1250835               3.4037
    116                          0.1261569               3.4329
    117                          0.2091204               5.6905
    118                          0.2268339               6.1725
    ...                                ...                  ...
    190                          0.9914567              26.9789
------------------------------------------------------------------
               HL-Gap            0.1906893 Eh            5.1889 eV
------------------------------------------------------------------

Atomic charges and shell populations (in atomic units):
------------------------------------------------------
     #    Z                q          p(s)       p(p)
------------------------------------------------------
     1    7 N      -0.339686      1.334554   4.005132
     2    6 C      -0.076368      1.117102   2.959266
     3    6 C       0.404737      1.130537   2.464726
     4    8 O      -0.528213      1.861245   4.666968
     5    7 N      -0.342935      1.435887   3.907049
     6    6 C       0.012378      1.168840   2.818783
     7    6 C       0.421643      1.122959   2.455399
     8    6 C      -0.011711      1.148398   2.863313
     9    8 O      -0.514436      1.854137   4.660299
    10    7 N      -0.317020      1.362384   3.954636
    11    6 C      -0.123324      1.155951   2.967373
    12    6 C       0.400226      1.082831   2.516943
    13    6 C      -0.262528      1.170631   3.091897
    14    6 C      -0.090101      1.139560   2.950542
    15    8 O      -0.545021      1.852845   4.692176
    16    6 C       0.548167      1.071753   2.380080
    17    7 N      -0.329974      1.399731   3.930244
    18    8 O      -0.644260      1.847269   4.796991
    19    8 O      -0.672478      1.848875   4.823603
    20    6 C       0.410917      1.091789   2.497294
    21    6 C      -0.012826      1.119688   2.893138
    22    8 O      -0.535642      1.850279   4.685363
    23    7 N      -0.326679      1.362381   3.964298
    24    6 C      -0.237520      1.181724   3.055796
    25    6 C       0.424347      1.112513   2.463140
    26    6 C      -0.069390      1.155951   2.913439
    27    8 O      -0.526312      1.852448   4.673864
    28    7 N      -0.366453      1.389826   3.976627
    29    6 C       0.413737      1.122426   2.463837
    30    8 O      -0.521044      1.855758   4.665285
    31    6 C      -0.160773      1.146972   3.013801
    32    6 C      -0.105417      1.132330   2.973087
    33    6 C      -0.011727      1.144968   2.866759
    34    6 C      -0.039597      1.124989   2.914607
    35    7 N      -0.249938      1.357124   3.892813
    36    6 C       0.041035      1.107503   2.851462
    37    6 C      -0.093014      1.163071   2.929943
    38    6 C      -0.123423      1.153256   2.970168
    39    6 C      -0.124200      1.146469   2.977731
    40    6 C      -0.116665      1.144222   2.972444
    41    1 H       0.253430      0.746570
    42    1 H       0.140564      0.859436
    43    1 H       0.110962      0.889038
    44    1 H       0.255967      0.744033
    45    1 H       0.106722      0.893278
    46    1 H       0.109758      0.890242
    47    1 H       0.279677      0.720323
    48    1 H       0.082290      0.917710
    49    1 H       0.119367      0.880633
    50    1 H       0.062707      0.937293
    51    1 H       0.071401      0.928599
    52    1 H       0.126789      0.873211
    53    1 H       0.127507      0.872493
    54    1 H       0.274242      0.725758
    55    1 H       0.120001      0.879999
    56    1 H       0.255561      0.744439
    57    1 H       0.084921      0.915079
    58    1 H       0.100949      0.899051
    59    1 H       0.102261      0.897739
    60    1 H       0.120447      0.879553
    61    1 H       0.100711      0.899289
    62    1 H       0.277037      0.722963
    63    1 H       0.116207      0.883793
    64    1 H       0.137430      0.862570
    65    1 H       0.130015      0.869985
    66    1 H       0.257513      0.742487
    67    1 H       0.100913      0.899087
    68    1 H       0.107762      0.892238
    69    1 H       0.100574      0.899426
    70    1 H       0.107805      0.892195
------------------------------------------------------


Wiberg/Mayer (AO) data.
largest (>0.10) Wiberg bond orders for each atom

 ---------------------------------------------------------------------------
     #   Z sym  total        # sym  WBO       # sym  WBO       # sym  WBO
 ---------------------------------------------------------------------------
     1   7 N    3.299 --     7 C    1.122     2 C    1.035    41 O    0.903
                             9 C    0.146
     2   6 C    3.930 --     1 N    1.035    43 O    0.943    42 O    0.934
                             3 C    0.914
     3   6 C    3.840 --     4 C    1.677     5 N    1.167     2 C    0.914
     4   8 C    1.956 --     3 C    1.677     5 N    0.138
     5   7 N    3.251 --     3 C    1.167     6 C    0.962    44 O    0.894
                             4 C    0.138
     6   6 C    3.920 --     5 N    0.962    31 C    0.953    45 O    0.942
                            29 C    0.922
     7   6 C    3.839 --     9 C    1.710     1 N    1.122     8 C    0.930
     8   6 C    3.903 --    10 N    0.957    46 O    0.946     7 C    0.930
                            11 C    0.923
     9   8 C    1.986 --     7 C    1.710     1 N    0.146
    10   7 N    3.374 --    12 C    1.270     8 C    0.957    47 O    0.877
                            15 C    0.180
    11   6 C    3.940 --    13 C    1.043    48 O    0.952    49 O    0.942
                             8 C    0.923
    12   6 C    3.895 --    15 C    1.625    10 N    1.270    14 C    0.953
    13   6 C    3.925 --    11 C    1.043    51 O    0.959    50 O    0.958
                            16 C    0.786
    14   6 C    3.916 --    17 N    0.954    52 O    0.953    12 C    0.953
                            53 O    0.951
    15   8 C    1.918 --    12 C    1.625    10 N    0.180
    16   6 C    3.857 --    18 C    1.544    19 C    1.500    13 C    0.786
    17   7 N    3.298 --    20 C    1.217    14 C    0.954    54 O    0.889
                            22 C    0.167
    18   8 C    1.839 --    16 C    1.544    19 C    0.197
    19   8 C    1.793 --    16 C    1.500    18 C    0.197
    20   6 C    3.882 --    22 C    1.667    17 N    1.217    21 C    0.936
    21   6 C    3.940 --    24 C    0.998    23 N    0.956    55 O    0.942
                            20 C    0.936
    22   8 C    1.946 --    20 C    1.667    17 N    0.167
    23   7 N    3.325 --    25 C    1.222    21 C    0.956    56 O    0.899
                            27 C    0.157
    24   6 C    3.950 --    21 C    0.998    57 O    0.973    58 O    0.971
                            59 O    0.968
    25   6 C    3.853 --    27 C    1.682    23 N    1.222    26 C    0.881
    26   6 C    3.929 --    28 N    1.004    60 O    0.955    61 O    0.953
                            25 C    0.881
    27   8 C    1.974 --    25 C    1.682    23 N    0.157
    28   7 N    3.256 --    29 C    1.142    26 C    1.004    62 O    0.877
                            30 C    0.148
    29   6 C    3.851 --    30 C    1.705    28 N    1.142     6 C    0.922
    30   8 C    1.971 --    29 C    1.705    28 N    0.148
    31   6 C    3.952 --    32 C    1.019    63 O    0.953     6 C    0.953
                            64 O    0.947
    32   6 C    3.926 --    33 C    1.561    34 C    1.159    31 C    1.019
    33   6 C    3.919 --    32 C    1.561    35 N    1.232    65 O    0.949
    34   6 C    3.969 --    36 C    1.332    37 C    1.269    32 C    1.159
    35   7 N    3.457 --    33 C    1.232    36 C    1.108    66 O    0.898
    36   6 C    3.929 --    34 C    1.332    38 C    1.294    35 N    1.108
    37   6 C    3.959 --    39 C    1.538    34 C    1.269    67 O    0.954
                            38 C    0.133
    38   6 C    3.962 --    40 C    1.519    36 C    1.294    68 O    0.954
                            37 C    0.133
    39   6 C    3.967 --    37 C    1.538    40 C    1.345    69 O    0.954
    40   6 C    3.966 --    38 C    1.519    39 C    1.345    70 O    0.955
    41   1 O    0.936 --     1 N    0.903
    42   1 O    0.980 --     2 C    0.934
    43   1 O    0.988 --     2 C    0.943
    44   1 O    0.934 --     5 N    0.894
    45   1 O    0.989 --     6 C    0.942
    46   1 O    0.988 --     8 C    0.946
    47   1 O    0.922 --    10 N    0.877
    48   1 O    0.993 --    11 C    0.952
    49   1 O    0.986 --    11 C    0.942
    50   1 O    0.996 --    13 C    0.958
    51   1 O    0.995 --    13 C    0.959
    52   1 O    0.984 --    14 C    0.953
    53   1 O    0.984 --    14 C    0.951
    54   1 O    0.925 --    17 N    0.889
    55   1 O    0.986 --    21 C    0.942
    56   1 O    0.935 --    23 N    0.899
    57   1 O    0.993 --    24 C    0.973
    58   1 O    0.990 --    24 C    0.971
    59   1 O    0.990 --    24 C    0.968
    60   1 O    0.985 --    26 C    0.955
    61   1 O    0.990 --    26 C    0.953
    62   1 O    0.923 --    28 N    0.877
    63   1 O    0.986 --    31 C    0.953
    64   1 O    0.981 --    31 C    0.947
    65   1 O    0.983 --    33 C    0.949
    66   1 O    0.934 --    35 N    0.898
    67   1 O    0.990 --    37 C    0.954
    68   1 O    0.988 --    38 C    0.954
    69   1 O    0.990 --    39 C    0.954
    70   1 O    0.988 --    40 C    0.955
 ---------------------------------------------------------------------------

Topologies differ in total number of bonds
Writing topology from bond orders to xtbtopo.mol

Atomic dipole moments (in atomic units):
---------------------------------------------------------
     #    Z                 x            y            z
---------------------------------------------------------
           total     5.633377    10.913063     9.905777
---------------------------------------------------------
         |total|    15.778286    40.104402 Debye


           -------------------------------------------------
          | TOTAL ENERGY            -1955.956635845144 Eh   |
          | GRADIENT NORM               0.307773830086 Eh/α |
           -------------------------------------------------

------------------------------------------------------------------------
 * finished run on 2026/05/23 at 08:13:50.178     
------------------------------------------------------------------------
 total:
 * wall-time:     0 d,  0 h,  0 min, 11.687 sec
 *  cpu-time:     0 d,  0 h,  0 min, 19.231 sec
 * ratio c/w:     1.646 speedup
 SCF:
 * wall-time:     0 d,  0 h,  0 min, 11.270 sec
 *  cpu-time:     0 d,  0 h,  0 min, 19.010 sec
 * ratio c/w:     1.687 speedup

normal termination of xtb
