      -----------------------------------------------------------      
     |                   =====================                   |     
     |                           x T B                           |     
     |                   =====================                   |     
     |                         S. Grimme                         |     
     |          Mulliken Center for Theoretical Chemistry        |     
     |                    University of Bonn                     |     
      -----------------------------------------------------------      

   * xtb version 6.7.1 (26dd68d) compiled by 'froitzheim@fs7' on 2026-05-14

   xtb is free software: you can redistribute it and/or modify it under
   the terms of the GNU Lesser General Public License as published by
   the Free Software Foundation, either version 3 of the License, or
   (at your option) any later version.
   
   xtb is distributed in the hope that it will be useful,
   but WITHOUT ANY WARRANTY; without even the implied warranty of
   MERCHANTABILITY or FITNESS FOR A PARTICULAR PURPOSE.  See the
   GNU Lesser General Public License for more details.
   
   Cite this work as:
   * C. Bannwarth, E. Caldeweyher, S. Ehlert, A. Hansen, P. Pracht,
     J. Seibert, S. Spicher, S. Grimme, WIREs Comput. Mol. Sci., 2020, 11,
     e01493. DOI: 10.1002/wcms.1493
   
   for g-xTB:
   * T. Froitzheim, M. Müller, A. Hansen, S. Grimme, ChemRxiv, 2025, preprint.
     DOI: 10.26434/chemrxiv-2025-bjxv
   for GFN2-xTB:
   * C. Bannwarth, S. Ehlert and S. Grimme., J. Chem. Theory Comput., 2019,
     15, 1652-1671. DOI: 10.1021/acs.jctc.8b01176
   for GFN1-xTB:
   * S. Grimme, C. Bannwarth, P. Shushkov, J. Chem. Theory Comput., 2017,
     13, 1989-2009. DOI: 10.1021/acs.jctc.7b00118
   for GFN0-xTB:
   * P. Pracht, E. Caldeweyher, S. Ehlert, S. Grimme, ChemRxiv, 2019, preprint.
     DOI: 10.26434/chemrxiv.8326202.v1
   for GFN-FF:
   * S. Spicher and S. Grimme, Angew. Chem. Int. Ed., 2020, 59, 15665-15673.
     DOI: 10.1002/anie.202004239
   
   for ALPB and GBSA implicit solvation:
   * S. Ehlert, M. Stahn, S. Spicher, S. Grimme, J. Chem. Theory Comput.,
     2021, 17, 4250-4261. DOI: 10.1021/acs.jctc.1c00471
   
   for ddCOSMO and CPCM-X implicit solvation:
   * M. Stahn, S. Ehlert, S. Grimme, J. Phys. Chem. A,
     2023, XX, XXXX-XXXX. DOI: 10.1021/acs.jpca.3c04382
   
   for DFT-D4:
   * E. Caldeweyher, C. Bannwarth and S. Grimme, J. Chem. Phys., 2017,
     147, 034112. DOI: 10.1063/1.4993215
   * E. Caldeweyher, S. Ehlert, A. Hansen, H. Neugebauer, S. Spicher,
     C. Bannwarth and S. Grimme, J. Chem. Phys., 2019, 150, 154122.
     DOI: 10.1063/1.5090222
   * E. Caldeweyher, J.-M. Mewes, S. Ehlert and S. Grimme, Phys. Chem. Chem. Phys.
     2020, 22, 8499-8512. DOI: 10.1039/D0CP00502A
   
   for sTDA-xTB:
   * S. Grimme and C. Bannwarth, J. Chem. Phys., 2016, 145, 054103.
     DOI: 10.1063/1.4959605
   
   in the mass-spec context:
   * V. Asgeirsson, C. Bauer and S. Grimme, Chem. Sci., 2017, 8, 4879.
     DOI: 10.1039/c7sc00601b
   * J. Koopman and S. Grimme, ACS Omega 2019, 4, 12, 15120-15133.
     DOI: 10.1021/acsomega.9b02011
   
   for metadynamics refer to:
   * S. Grimme, J. Chem. Theory Comput., 2019, 155, 2847-2862
     DOI: 10.1021/acs.jctc.9b00143
   
   for SPH calculations refer to:
   * S. Spicher and S. Grimme, J. Chem. Theory Comput., 2021, 17, 1701-1714
     DOI: 10.1021/acs.jctc.0c01306
   
   for ONIOM refer to:
   * C. Plett, A. Katbashev, S. Ehlert, S. Grimme, M. Bursch,
     Phys. Chem. Chem. Phys., 2023, 25, 17860-17868. DOI: 10.1039/D3CP02178E
   
   for DIPRO refer to:
   * J. Kohn, N. Gildemeister, S. Grimme, D. Fazzi, A. Hansen,
     J. Chem. Phys. 159, 144106 (2023). DOI: 10.1063/5.0167484
   
   for PTB refer to:
   * S. Grimme, M. Mueller, A. Hansen, J. Chem. Phys., 2023, 158, 124111.
     DOI: 10.1063/5.0137838
   
   with help from (in alphabetical order)
   P. Atkinson, C. Bannwarth, F. Bohle, G. Brandenburg, E. Caldeweyher,
   M. Checinski, S. Dohm, S. Ehlert, S. Ehrlich, M. Friede, T. Froitzheim,
   I. Gerasimov, C. Hölzer, A. Katbashev, J. Kohn, J. Koopman, C. Lavigne,
   S. Lehtola, F. März, M. Müller, F. Musil, H. Neugebauer, J. Pisarek,
   C. Plett, P. Pracht, F. Pultar, J. Seibert, P. Shushkov, S. Spicher,
   M. Stahn, M. Steiner, T. Strunk, J. Stückrath, T. Rose, and J. Unsleber
   
 * started run on 2026/05/23 at 13:01:19.338     
   ID    Z sym.   atoms
    1    7 N      1, 5, 10, 17, 27, 34, 39, 43, 54, 56, 57
    2    6 C      2, 3, 6-8, 11-14, 16, 18, 21-23, 28-31, 33, 35-38, 40,
                  44-48, 50-53, 55, 58
    3    8 O      4, 9, 15, 19, 20, 24-26, 32, 41, 49
    4   16 S      42
    5    1 H      59-117

           -------------------------------------------------
          |                Calculation Setup                |
           -------------------------------------------------

          program call               : /home/xchen/software/xtb-6.7.1-gxtb/bin/xtb /home/xchen/Test/benchmark/md_sampled/04_7_0231_n2/snap_0170.xyz --charge -2 --gxtb --norestart
          coordinate file            : /home/xchen/Test/benchmark/md_sampled/04_7_0231_n2/snap_0170.xyz
          omp threads                :                    48

core increment energy         -2.9312527735450E+03 Eh
dispersion energy              2.1984801709869E-02 Eh
molecular charge              -2.0000000000000E+00 e
number of electrons            3.2799999999710E+02 e
number of unpaired electrons   0.0000000000000E+00 e
wavefunction                   restricted
integral cutoff                2.6907767250513E+01 bohr
energy convergence             1.0000000000000E-06 Eh
density convergence            2.0000000000000E-05 e

------------------------------------------------------------
  cycle        total energy    energy error   density error
------------------------------------------------------------
      1     -3195.853314229  -2.6462253E+02   0.0000000E+00
      2     -3196.356141115  -5.0282689E-01   2.1088411E-02
      3     -3196.675700793  -3.1955968E-01   1.6492468E-02
      4     -3197.346039165  -6.7033837E-01   1.2966143E-02
      5     -3197.356210600  -1.0171435E-02   8.4813710E-04
      6     -3197.357024947  -8.1434646E-04   1.5919041E-04
      7     -3197.357088626  -6.3678807E-05   5.0945776E-05
      8     -3197.357093496  -4.8706927E-06   1.5104254E-05
      9     -3197.357094139  -6.4220524E-07   2.5176110E-06
------------------------------------------------------------

electronic energy             -2.6612630539525E+02 Eh
total energy                  -3.1973570941385E+03 Eh

Post processing:
 | Mayer-Wiberg bond orders
 | Molecular Multipole Moments

 total:                                   8.087 sec
 - increment                              0.000 sec (  0%)
 - repulsion                              0.003 sec (  0%)
 - dispersion                             0.114 sec (  1%)
 - coulomb                                0.104 sec (  1%)
 - exchange                               0.002 sec (  0%)
 - hamiltonian                            3.559 sec ( 44%)
 - acp                                    0.079 sec (  0%)
 - post processing                        0.291 sec (  3%)
 - scc                                    3.746 sec ( 46%)
 - coulomb gradient                       0.044 sec (  0%)
 - dispersion gradient                    0.017 sec (  0%)
 - exchange gradient                      0.077 sec (  0%)
 - repulsion gradient                     0.002 sec (  0%)
 - acp gradient                           0.147 sec (  1%)
 - hamiltonian gradient                   0.184 sec (  2%)
 - gradient                               0.471 sec (  5%)

         :::::::::::::::::::::::::::::::::::::::::::::::::::::
         ::                     SUMMARY                     ::
         :::::::::::::::::::::::::::::::::::::::::::::::::::::
         :: total energy           -3197.357094138541 Eh    ::
         :: gradient norm              0.408455090465 Eh/a0 ::
         :: HOMO-LUMO gap              5.652025552393 eV    ::
         ::.................................................::
         :: add. restraining           0.000000000000 Eh    ::
         :: total charge              -2.000000000000 e     ::
         :::::::::::::::::::::::::::::::::::::::::::::::::::::

           -------------------------------------------------
          |                Property Printout                |
           -------------------------------------------------

    * Orbital Energies and Occupations
------------------------------------------------------------------
      #    Occupation            Energy/Eh            Energy/eV
------------------------------------------------------------------
      1        2.0000           -1.2157727             -33.0829
    ...           ...                  ...                  ...
    152        2.0000           -0.2208061              -6.0084
    153        2.0000           -0.2201135              -5.9896
    154        2.0000           -0.2189925              -5.9591
    155        2.0000           -0.2132655              -5.8033
    156        2.0000           -0.2019167              -5.4944
    157        2.0000           -0.1840439              -5.0081
    158        2.0000           -0.1837122              -4.9991
    159        2.0000           -0.1813754              -4.9355
    160        2.0000           -0.1676446              -4.5618
    161        2.0000           -0.1441973              -3.9238
    162        2.0000           -0.1366689              -3.7189
    163        2.0000           -0.1202050              -3.2709
    164        2.0000           -0.1011914              -2.7536 (HOMO)
    165                          0.1065167               2.8985 (LUMO)
    166                          0.1421908               3.8692
    167                          0.1494494               4.0667
    168                          0.1529418               4.1618
    169                          0.1567039               4.2641
    170                          0.1640397               4.4637
    171                          0.1726457               4.6979
    172                          0.1762726               4.7966
    173                          0.1829041               4.9771
    174                          0.1991484               5.4191
    175                          0.2338591               6.3636
    ...                                ...                  ...
    296                          0.9454316              25.7265
------------------------------------------------------------------
               HL-Gap            0.2077081 Eh            5.6520 eV
------------------------------------------------------------------

Atomic charges and shell populations (in atomic units):
-----------------------------------------------------------------
     #    Z                q          p(s)       p(p)       p(d)
-----------------------------------------------------------------
     1    7 N      -0.339329      1.348289   3.991041
     2    6 C       0.019783      1.131726   2.848491
     3    6 C       0.425976      1.104334   2.469690
     4    8 O      -0.533292      1.858565   4.674727
     5    7 N      -0.320846      1.370991   3.949854
     6    6 C       0.000142      1.114558   2.885300
     7    6 C       0.409601      1.103275   2.487124
     8    6 C       0.020140      1.134304   2.845556
     9    8 O      -0.535370      1.858717   4.676653
    10    7 N      -0.337346      1.377971   3.959375
    11    6 C      -0.174575      1.145382   3.029193
    12    6 C       0.427335      1.098493   2.474173
    13    6 C      -0.230254      1.185719   3.044534
    14    6 C      -0.014772      1.150778   2.863994
    15    8 O      -0.549714      1.844062   4.705652
    16    6 C       0.523700      1.080916   2.395384
    17    7 N      -0.346294      1.394154   3.952139
    18    6 C      -0.222159      1.161356   3.060803
    19    8 O      -0.697730      1.852377   4.845353
    20    8 O      -0.687141      1.856013   4.831128
    21    6 C       0.411076      1.103086   2.485839
    22    6 C       0.510799      1.078066   2.411134
    23    6 C      -0.002279      1.124035   2.878244
    24    8 O      -0.597459      1.856214   4.741245
    25    8 O      -0.625774      1.858534   4.767240
    26    8 O      -0.719988      1.855853   4.864135
    27    7 N      -0.327213      1.355925   3.971288
    28    6 C      -0.179358      1.168374   3.010984
    29    6 C       0.419429      1.094141   2.486429
    30    6 C      -0.174139      1.153734   3.020405
    31    6 C       0.001657      1.143764   2.854580
    32    8 O      -0.528967      1.850083   4.678884
    33    6 C      -0.201770      1.167062   3.034708
    34    7 N      -0.352584      1.365717   3.986867
    35    6 C      -0.160601      1.166625   2.993976
    36    6 C      -0.119748      1.141367   2.978381
    37    6 C       0.439829      1.079586   2.480585
    38    6 C      -0.135603      1.179813   2.955790
    39    7 N      -0.517075      1.438304   4.078771
    40    6 C       0.006796      1.146062   2.847142
    41    8 O      -0.541572      1.846956   4.694616
    42   16 S      -0.189500      1.889961   4.225402   0.074137
    43    7 N      -0.373479      1.381831   3.991648
    44    6 C      -0.101722      1.142165   2.959557
    45    6 C      -0.228893      1.191145   3.037748
    46    6 C       0.399122      1.098368   2.502510
    47    6 C      -0.265831      1.160787   3.105043
    48    6 C      -0.180515      1.156955   3.023560
    49    8 O      -0.519529      1.850934   4.668595
    50    6 C      -0.253678      1.167177   3.086502
    51    6 C      -0.177138      1.143336   3.033801
    52    6 C      -0.168904      1.141820   3.027084
    53    6 C      -0.070320      1.133048   2.937272
    54    7 N      -0.417604      1.385141   4.032463
    55    6 C       0.289203      1.092459   2.618338
    56    7 N      -0.558474      1.565378   3.993096
    57    7 N      -0.451002      1.422206   4.028796
    58    6 C      -0.304940      1.181688   3.123252
    59    1 H       0.276317      0.723683
    60    1 H       0.106711      0.893289
    61    1 H       0.290574      0.709426
    62    1 H       0.150924      0.849076
    63    1 H       0.108208      0.891792
    64    1 H       0.264698      0.735302
    65    1 H       0.102963      0.897037
    66    1 H       0.109646      0.890354
    67    1 H       0.094032      0.905968
    68    1 H       0.075070      0.924930
    69    1 H       0.129774      0.870226
    70    1 H       0.321383      0.678617
    71    1 H       0.079651      0.920349
    72    1 H       0.120419      0.879581
    73    1 H       0.130610      0.869390
    74    1 H       0.273991      0.726009
    75    1 H       0.089071      0.910929
    76    1 H       0.080871      0.919129
    77    1 H       0.099362      0.900638
    78    1 H       0.084775      0.915225
    79    1 H       0.111005      0.888995
    80    1 H       0.113744      0.886256
    81    1 H       0.063108      0.936892
    82    1 H       0.259495      0.740505
    83    1 H       0.120961      0.879039
    84    1 H       0.109745      0.890255
    85    1 H       0.100722      0.899278
    86    1 H       0.086170      0.913830
    87    1 H       0.112944      0.887056
    88    1 H       0.097788      0.902212
    89    1 H       0.271928      0.728072
    90    1 H       0.216251      0.783749
    91    1 H       0.123434      0.876566
    92    1 H       0.260988      0.739012
    93    1 H       0.116426      0.883574
    94    1 H       0.118591      0.881409
    95    1 H       0.116517      0.883483
    96    1 H       0.092051      0.907949
    97    1 H       0.083559      0.916441
    98    1 H       0.098722      0.901278
    99    1 H       0.088406      0.911594
   100    1 H       0.083538      0.916462
   101    1 H       0.108230      0.891770
   102    1 H       0.081128      0.918872
   103    1 H       0.093561      0.906439
   104    1 H       0.087497      0.912503
   105    1 H       0.129953      0.870047
   106    1 H       0.114427      0.885573
   107    1 H       0.095883      0.904117
   108    1 H       0.105018      0.894982
   109    1 H       0.092210      0.907790
   110    1 H       0.074360      0.925640
   111    1 H       0.249329      0.750671
   112    1 H       0.232608      0.767392
   113    1 H       0.249630      0.750370
   114    1 H       0.252700      0.747300
   115    1 H       0.125556      0.874444
   116    1 H       0.107206      0.892794
   117    1 H       0.095454      0.904546
-----------------------------------------------------------------


Wiberg/Mayer (AO) data.
largest (>0.10) Wiberg bond orders for each atom

 ---------------------------------------------------------------------------
     #   Z sym  total        # sym  WBO       # sym  WBO       # sym  WBO
 ---------------------------------------------------------------------------
     1   7 N    3.328 --     7 C    1.227     2 C    0.966    59 N    0.874
                             9 C    0.168
     2   6 C    3.937 --    51 C    0.987     1 N    0.966    60 N    0.929
                             3 C    0.928
     3   6 C    3.866 --     4 C    1.676     5 N    1.195     2 C    0.928
     4   8 C    1.945 --     3 C    1.676     5 N    0.152
     5   7 N    3.292 --     3 C    1.195     6 C    0.986    61 N    0.872
                             4 C    0.152
     6   6 C    3.947 --     5 N    0.986    58 C    0.982    46 C    0.943
                            62 N    0.922
     7   6 C    3.871 --     9 C    1.644     1 N    1.227     8 C    0.926
     8   6 C    3.924 --    11 C    0.996    10 N    0.936    63 N    0.928
                             7 C    0.926
     9   8 C    1.934 --     7 C    1.644     1 N    0.168
    10   7 N    3.329 --    12 C    1.250     8 C    0.936    64 N    0.883
                            15 C    0.169
    11   6 C    3.954 --    13 C    0.999     8 C    0.996    66 N    0.952
                            65 N    0.951
    12   6 C    3.862 --    15 C    1.658    10 N    1.250    14 C    0.882
    13   6 C    3.937 --    11 C    0.999    68 N    0.964    67 N    0.952
                            16 C    0.871
    14   6 C    3.918 --    18 C    1.005    17 N    0.939    69 N    0.938
                            12 C    0.882
    15   8 C    1.970 --    12 C    1.658    10 N    0.169
    16   6 C    3.858 --    20 C    1.486    19 C    1.476    13 C    0.871
    17   7 N    3.361 --    21 C    1.335    14 C    0.939    70 N    0.775
                            24 C    0.176
    18   6 C    3.954 --    14 C    1.005    72 N    0.955    71 N    0.944
                            22 C    0.920
    19   8 C    1.768 --    16 C    1.476    20 C    0.190
    20   8 C    1.768 --    16 C    1.486    19 C    0.190
    21   6 C    3.881 --    24 C    1.573    17 N    1.335    23 C    0.908
    22   6 C    3.866 --    25 C    1.562    26 C    1.356    18 C    0.920
    23   6 C    3.925 --    28 C    0.975    27 N    0.968    73 N    0.937
                            21 C    0.908
    24   8 C    1.882 --    21 C    1.573    17 N    0.176
    25   8 C    1.837 --    22 C    1.562    26 C    0.190
    26   8 C    1.752 --    22 C    1.356    25 C    0.190
    27   7 N    3.360 --    29 C    1.250    23 C    0.968    74 N    0.883
                            32 C    0.173
    28   6 C    3.960 --    30 C    0.993    23 C    0.975    75 N    0.959
                            76 N    0.957
    29   6 C    3.878 --    32 C    1.662    27 N    1.250    31 C    0.901
    30   6 C    3.965 --    33 C    1.015    28 C    0.993    78 N    0.964
                            77 N    0.955
    31   6 C    3.921 --    35 C    0.997    79 N    0.943    34 N    0.936
                            29 C    0.901
    32   8 C    1.964 --    29 C    1.662    27 N    0.173
    33   6 C    3.963 --    30 C    1.015    36 C    0.978    81 N    0.965
                            80 N    0.950
    34   7 N    3.312 --    37 C    1.209    31 C    0.936    82 N    0.888
                            41 C    0.170
    35   6 C    3.949 --    31 C    0.997    38 C    0.989    83 N    0.949
                            84 N    0.948
    36   6 C    3.958 --    39 N    1.038    33 C    0.978    85 N    0.962
                            86 N    0.956
    37   6 C    3.882 --    41 C    1.658    34 N    1.209    40 C    0.950
    38   6 C    3.941 --    42 O    0.996    35 C    0.989    88 N    0.962
                            87 N    0.958
    39   7 N    2.938 --    36 C    1.038    90 N    0.933    89 N    0.898
    40   6 C    3.925 --    37 C    0.950    43 N    0.948    44 C    0.947
                            91 N    0.938
    41   8 C    1.946 --    37 C    1.658    34 N    0.170
    42  16 O    2.096 --    45 C    1.002    38 C    0.996
    43   7 N    3.276 --    46 C    1.186    40 C    0.948    92 N    0.876
                            49 C    0.159
    44   6 C    3.967 --    47 C    1.014    48 C    0.994    40 C    0.947
                            93 N    0.944
    45   6 C    3.924 --    42 O    1.002    96 N    0.974    94 N    0.969
                            95 N    0.960
    46   6 C    3.875 --    49 C    1.681    43 N    1.186     6 C    0.943
    47   6 C    3.962 --    44 C    1.014    99 N    0.976    98 N    0.970
                            97 N    0.967
    48   6 C    3.963 --    50 C    1.023    44 C    0.994   100 N    0.957
                           101 N    0.946
    49   8 C    1.954 --    46 C    1.681    43 N    0.159
    50   6 C    3.962 --    48 C    1.023   103 N    0.973   104 N    0.972
                           102 N    0.971
    51   6 C    3.959 --    52 C    1.009     2 C    0.987   106 N    0.954
                           105 N    0.946
    52   6 C    3.965 --    53 C    1.011    51 C    1.009   108 N    0.954
                           107 N    0.949
    53   6 C    3.934 --    52 C    1.011    54 N    0.985   110 N    0.951
                           109 N    0.945
    54   7 N    3.149 --    55 C    1.055    53 C    0.985   111 N    0.900
                            56 N    0.103
    55   6 C    3.936 --    56 N    1.708    57 N    1.140    54 N    1.055
    56   7 N    2.884 --    55 C    1.708   112 N    0.909    57 N    0.109
                            54 N    0.103
    57   7 N    3.127 --    55 C    1.140   114 N    0.913   113 N    0.910
                            56 N    0.109
    58   6 C    3.946 --     6 C    0.982   117 N    0.968   116 N    0.967
                           115 N    0.962
    59   1 N    0.924 --     1 N    0.874
    60   1 N    0.989 --     2 C    0.929
    61   1 N    0.916 --     5 N    0.872
    62   1 N    0.977 --     6 C    0.922
    63   1 N    0.988 --     8 C    0.928
    64   1 N    0.930 --    10 N    0.883
    65   1 N    0.989 --    11 C    0.951
    66   1 N    0.988 --    11 C    0.952
    67   1 N    0.991 --    13 C    0.952
    68   1 N    0.994 --    13 C    0.964
    69   1 N    0.983 --    14 C    0.938
    70   1 N    0.897 --    17 N    0.775
    71   1 N    0.994 --    18 C    0.944
    72   1 N    0.985 --    18 C    0.955
    73   1 N    0.983 --    23 C    0.937
    74   1 N    0.925 --    27 N    0.883
    75   1 N    0.992 --    28 C    0.959
    76   1 N    0.993 --    28 C    0.957
    77   1 N    0.990 --    30 C    0.955
    78   1 N    0.993 --    30 C    0.964
    79   1 N    0.988 --    31 C    0.943
    80   1 N    0.987 --    33 C    0.950
    81   1 N    0.996 --    33 C    0.965
    82   1 N    0.933 --    34 N    0.888
    83   1 N    0.985 --    35 C    0.949
    84   1 N    0.988 --    35 C    0.948
    85   1 N    0.990 --    36 C    0.962
    86   1 N    0.993 --    36 C    0.956
    87   1 N    0.987 --    38 C    0.958
    88   1 N    0.990 --    38 C    0.962
    89   1 N    0.926 --    39 N    0.898
    90   1 N    0.953 --    39 N    0.933
    91   1 N    0.985 --    40 C    0.938
    92   1 N    0.932 --    43 N    0.876
    93   1 N    0.986 --    44 C    0.944
    94   1 N    0.986 --    45 C    0.969
    95   1 N    0.986 --    45 C    0.960
    96   1 N    0.992 --    45 C    0.974
    97   1 N    0.993 --    47 C    0.967
    98   1 N    0.990 --    47 C    0.970
    99   1 N    0.992 --    47 C    0.976
   100   1 N    0.993 --    48 C    0.957
   101   1 N    0.988 --    48 C    0.946
   102   1 N    0.993 --    50 C    0.971
   103   1 N    0.991 --    50 C    0.973
   104   1 N    0.992 --    50 C    0.972
   105   1 N    0.983 --    51 C    0.946
   106   1 N    0.987 --    51 C    0.954
   107   1 N    0.991 --    52 C    0.949
   108   1 N    0.989 --    52 C    0.954
   109   1 N    0.991 --    53 C    0.945
   110   1 N    0.994 --    53 C    0.951
   111   1 N    0.938 --    54 N    0.900
   112   1 N    0.946 --    56 N    0.909
   113   1 N    0.938 --    57 N    0.910
   114   1 N    0.936 --    57 N    0.913
   115   1 N    0.984 --    58 C    0.962
   116   1 N    0.989 --    58 C    0.967
   117   1 N    0.991 --    58 C    0.968
 ---------------------------------------------------------------------------

Topologies differ in total number of bonds
Writing topology from bond orders to xtbtopo.mol

Atomic dipole moments (in atomic units):
---------------------------------------------------------
     #    Z                 x            y            z
---------------------------------------------------------
           total     1.936228    14.949007     1.902508
---------------------------------------------------------
         |total|    15.193463    38.617932 Debye


           -------------------------------------------------
          | TOTAL ENERGY            -3197.357094138541 Eh   |
          | GRADIENT NORM               0.408455090465 Eh/α |
           -------------------------------------------------

------------------------------------------------------------------------
 * finished run on 2026/05/23 at 13:01:27.951     
------------------------------------------------------------------------
 total:
 * wall-time:     0 d,  0 h,  0 min,  8.612 sec
 *  cpu-time:     0 d,  0 h,  1 min, 35.425 sec
 * ratio c/w:    11.080 speedup
 SCF:
 * wall-time:     0 d,  0 h,  0 min,  8.496 sec
 *  cpu-time:     0 d,  0 h,  1 min, 34.846 sec
 * ratio c/w:    11.164 speedup

normal termination of xtb
