      -----------------------------------------------------------      
     |                   =====================                   |     
     |                           x T B                           |     
     |                   =====================                   |     
     |                         S. Grimme                         |     
     |          Mulliken Center for Theoretical Chemistry        |     
     |                    University of Bonn                     |     
      -----------------------------------------------------------      

   * xtb version 6.7.1 (edcfbbe) compiled by 'albert@albert-system' on 2024-07-22

   xtb is free software: you can redistribute it and/or modify it under
   the terms of the GNU Lesser General Public License as published by
   the Free Software Foundation, either version 3 of the License, or
   (at your option) any later version.
   
   xtb is distributed in the hope that it will be useful,
   but WITHOUT ANY WARRANTY; without even the implied warranty of
   MERCHANTABILITY or FITNESS FOR A PARTICULAR PURPOSE.  See the
   GNU Lesser General Public License for more details.
   
   Cite this work as:
   * C. Bannwarth, E. Caldeweyher, S. Ehlert, A. Hansen, P. Pracht,
     J. Seibert, S. Spicher, S. Grimme, WIREs Comput. Mol. Sci., 2020, 11,
     e01493. DOI: 10.1002/wcms.1493
   
   for GFN2-xTB:
   * C. Bannwarth, S. Ehlert and S. Grimme., J. Chem. Theory Comput., 2019,
     15, 1652-1671. DOI: 10.1021/acs.jctc.8b01176
   for GFN1-xTB:
   * S. Grimme, C. Bannwarth, P. Shushkov, J. Chem. Theory Comput., 2017,
     13, 1989-2009. DOI: 10.1021/acs.jctc.7b00118
   for GFN0-xTB:
   * P. Pracht, E. Caldeweyher, S. Ehlert, S. Grimme, ChemRxiv, 2019, preprint.
     DOI: 10.26434/chemrxiv.8326202.v1
   for GFN-FF:
   * S. Spicher and S. Grimme, Angew. Chem. Int. Ed., 2020, 59, 15665-15673.
     DOI: 10.1002/anie.202004239
   
   for ALPB and GBSA implicit solvation:
   * S. Ehlert, M. Stahn, S. Spicher, S. Grimme, J. Chem. Theory Comput.,
     2021, 17, 4250-4261. DOI: 10.1021/acs.jctc.1c00471
   
   for ddCOSMO and CPCM-X implicit solvation:
   * M. Stahn, S. Ehlert, S. Grimme, J. Phys. Chem. A,
     2023, XX, XXXX-XXXX. DOI: 10.1021/acs.jpca.3c04382
   
   for DFT-D4:
   * E. Caldeweyher, C. Bannwarth and S. Grimme, J. Chem. Phys., 2017,
     147, 034112. DOI: 10.1063/1.4993215
   * E. Caldeweyher, S. Ehlert, A. Hansen, H. Neugebauer, S. Spicher,
     C. Bannwarth and S. Grimme, J. Chem. Phys., 2019, 150, 154122.
     DOI: 10.1063/1.5090222
   * E. Caldeweyher, J.-M. Mewes, S. Ehlert and S. Grimme, Phys. Chem. Chem. Phys.
     2020, 22, 8499-8512. DOI: 10.1039/D0CP00502A
   
   for sTDA-xTB:
   * S. Grimme and C. Bannwarth, J. Chem. Phys., 2016, 145, 054103.
     DOI: 10.1063/1.4959605
   
   in the mass-spec context:
   * V. Asgeirsson, C. Bauer and S. Grimme, Chem. Sci., 2017, 8, 4879.
     DOI: 10.1039/c7sc00601b
   * J. Koopman and S. Grimme, ACS Omega 2019, 4, 12, 15120-15133.
     DOI: 10.1021/acsomega.9b02011
   
   for metadynamics refer to:
   * S. Grimme, J. Chem. Theory Comput., 2019, 155, 2847-2862
     DOI: 10.1021/acs.jctc.9b00143
   
   for SPH calculations refer to:
   * S. Spicher and S. Grimme, J. Chem. Theory Comput., 2021, 17, 1701-1714
     DOI: 10.1021/acs.jctc.0c01306
   
   for ONIOM refer to:
   * C. Plett, A. Katbashev, S. Ehlert, S. Grimme, M. Bursch,
     Phys. Chem. Chem. Phys., 2023, 25, 17860-17868. DOI: 10.1039/D3CP02178E
   
   for DIPRO refer to:
   * J. Kohn, N. Gildemeister, S. Grimme, D. Fazzi, A. Hansen,
     J. Chem. Phys., 2023, just accepted.
   
   for PTB refer to:
   * S. Grimme, M. Mueller, A. Hansen, J. Chem. Phys., 2023, 158, 124111.
     DOI: 10.1063/5.0137838
   
   with help from (in alphabetical order)
   P. Atkinson, C. Bannwarth, F. Bohle, G. Brandenburg, E. Caldeweyher
   M. Checinski, S. Dohm, S. Ehlert, S. Ehrlich, I. Gerasimov, C. Hölzer
   A. Katbashev, J. Kohn, J. Koopman, C. Lavigne, S. Lehtola, F. März, M. Müller,
   F. Musil, H. Neugebauer, J. Pisarek, C. Plett, P. Pracht, F. Pultar,
   J. Seibert, P. Shushkov, S. Spicher, M. Stahn, M. Steiner, T. Strunk,
   J. Stückrath, T. Rose, and J. Unsleber
   
 * started run on 2026/05/23 at 08:16:48.643     
   ID    Z sym.   atoms
    1    7 N      1, 5, 10, 17, 23, 28, 35
    2    6 C      2, 3, 6-8, 11-14, 16, 20, 21, 24-26, 29, 31-34, 36-40
    3    8 O      4, 9, 15, 18, 19, 22, 27, 30
    4    1 H      41-70

           -------------------------------------------------
          |                Calculation Setup                |
           -------------------------------------------------

          program call               : /home/xchen/software/xtb-6.7.1/xtb-dist/bin/xtb /home/xchen/Test/benchmark/md_sampled/01_6_0109_n1/snap_0128.xyz --charge -1 --gfn 2 --norestart
          coordinate file            : /home/xchen/Test/benchmark/md_sampled/01_6_0109_n1/snap_0128.xyz
          omp threads                :                    48


           -------------------------------------------------
          |                 G F N 2 - x T B                 |
           -------------------------------------------------

        Reference                      10.1021/acs.jctc.8b01176
      * Hamiltonian:
        H0-scaling (s, p, d)           1.850000    2.230000    2.230000
        zeta-weighting                 0.500000
      * Dispersion:
        s8                             2.700000
        a1                             0.520000
        a2                             5.000000
        s9                             5.000000
      * Repulsion:
        kExp                           1.500000    1.000000
        rExp                           1.000000
      * Coulomb:
        alpha                          2.000000
        third order                    shell-resolved
        anisotropic                    true
        a3                             3.000000
        a5                             4.000000
        cn-shift                       1.200000
        cn-exp                         4.000000
        max-rad                        5.000000


          ...................................................
          :                      SETUP                      :
          :.................................................:
          :  # basis functions                 190          :
          :  # atomic orbitals                 190          :
          :  # shells                          110          :
          :  # electrons                       214          :
          :  max. iterations                   250          :
          :  Hamiltonian                  GFN2-xTB          :
          :  restarted?                      false          :
          :  GBSA solvation                  false          :
          :  PC potential                    false          :
          :  electronic temp.          300.0000000     K    :
          :  accuracy                    1.0000000          :
          :  -> integral cutoff          0.2500000E+02      :
          :  -> integral neglect         0.1000000E-07      :
          :  -> SCF convergence          0.1000000E-05 Eh   :
          :  -> wf. convergence          0.1000000E-03 e    :
          :  Broyden damping             0.4000000          :
          :  net charge                         -1          :
          :  unpaired electrons                  0          :
          ...................................................

 iter      E             dE          RMSdq      gap      omega  full diag
   1   -123.0953509 -0.123095E+03  0.447E+00    3.18       0.0  T
   2   -123.4344307 -0.339080E+00  0.244E+00    2.17       1.0  T
   3   -123.4517951 -0.173644E-01  0.137E+00    1.07       1.0  T
   4   -123.4329407  0.188543E-01  0.647E-01    0.12       1.0  T
   5   -123.4693399 -0.363992E-01  0.168E-01    0.90       1.0  T
   6   -123.4702834 -0.943464E-03  0.812E-02    0.69       1.0  T
   7   -123.4703683 -0.849335E-04  0.481E-02    0.59       1.0  T
   8   -123.4703893 -0.209959E-04  0.217E-02    0.51       1.0  T
   9   -123.4704056 -0.162960E-04  0.784E-03    0.48       1.5  T
  10   -123.4704065 -0.947591E-06  0.320E-03    0.48       3.7  T
  11   -123.4704067 -0.146623E-06  0.111E-03    0.48      10.8  T
  12   -123.4704067 -0.130685E-07  0.386E-04    0.48      30.9  T
  13   -123.4704067 -0.453188E-08  0.155E-04    0.48      77.1  T

   *** convergence criteria satisfied after 13 iterations ***

         #    Occupation            Energy/Eh            Energy/eV
      -------------------------------------------------------------
         1        2.0000           -0.6578070             -17.8998
       ...           ...                  ...                  ...
       101        2.0000           -0.3226100              -8.7787
       102        2.0000           -0.3205309              -8.7221
       103        2.0000           -0.3077286              -8.3737
       104        2.0000           -0.3067948              -8.3483
       105        2.0000           -0.2350079              -6.3949
       106        2.0000           -0.2245183              -6.1095
       107        1.9998           -0.2063331              -5.6146 (HOMO)
       108        0.0002           -0.1885763              -5.1314 (LUMO)
       109                         -0.1767791              -4.8104
       110                         -0.1656228              -4.5068
       111                         -0.1593741              -4.3368
       112                         -0.1580683              -4.3013
       ...                                ...                  ...
       190                          0.7941998              21.6113
      -------------------------------------------------------------
                  HL-Gap            0.0177567 Eh            0.4832 eV
             Fermi-level           -0.1974547 Eh           -5.3730 eV

 SCC (total)                   0 d,  0 h,  0 min,  9.179 sec
 SCC setup                      ...        0 min,  0.029 sec (  0.313%)
 Dispersion                     ...        0 min,  0.050 sec (  0.547%)
 classical contributions        ...        0 min,  0.006 sec (  0.062%)
 integral evaluation            ...        0 min,  0.344 sec (  3.753%)
 iterations                     ...        0 min,  8.410 sec ( 91.628%)
 molecular gradient             ...        0 min,  0.333 sec (  3.625%)
 printout                       ...        0 min,  0.007 sec (  0.072%)

         :::::::::::::::::::::::::::::::::::::::::::::::::::::
         ::                     SUMMARY                     ::
         :::::::::::::::::::::::::::::::::::::::::::::::::::::
         :: total energy            -122.042157496398 Eh    ::
         :: gradient norm              0.312030988124 Eh/a0 ::
         :: HOMO-LUMO gap              0.483185642352 eV    ::
         ::.................................................::
         :: SCC energy              -123.469161033775 Eh    ::
         :: -> isotropic ES            0.394851705179 Eh    ::
         :: -> anisotropic ES          0.013609747213 Eh    ::
         :: -> anisotropic XC          0.033525991013 Eh    ::
         :: -> dispersion             -0.080759999396 Eh    ::
         :: repulsion energy           1.427003537377 Eh    ::
         :: add. restraining           0.000000000000 Eh    ::
         :: total charge              -1.000000000705 e     ::
         :::::::::::::::::::::::::::::::::::::::::::::::::::::

           -------------------------------------------------
          |                Property Printout                |
           -------------------------------------------------

    * Orbital Energies and Occupations

         #    Occupation            Energy/Eh            Energy/eV
      -------------------------------------------------------------
         1        2.0000           -0.6578070             -17.8998
       ...           ...                  ...                  ...
        95        2.0000           -0.3357316              -9.1357
        96        2.0000           -0.3326896              -9.0529
        97        2.0000           -0.3309866              -9.0066
        98        2.0000           -0.3277437              -8.9184
        99        2.0000           -0.3266399              -8.8883
       100        2.0000           -0.3249208              -8.8415
       101        2.0000           -0.3226100              -8.7787
       102        2.0000           -0.3205309              -8.7221
       103        2.0000           -0.3077286              -8.3737
       104        2.0000           -0.3067948              -8.3483
       105        2.0000           -0.2350079              -6.3949
       106        2.0000           -0.2245183              -6.1095
       107        1.9998           -0.2063331              -5.6146 (HOMO)
       108        0.0002           -0.1885763              -5.1314 (LUMO)
       109                         -0.1767791              -4.8104
       110                         -0.1656228              -4.5068
       111                         -0.1593741              -4.3368
       112                         -0.1580683              -4.3013
       113                         -0.1524080              -4.1472
       114                         -0.1488804              -4.0512
       115                         -0.1430269              -3.8920
       116                         -0.1148897              -3.1263
       117                         -0.0348223              -0.9476
       118                         -0.0258273              -0.7028
       ...                                ...                  ...
       190                          0.7941998              21.6113
      -------------------------------------------------------------
                  HL-Gap            0.0177567 Eh            0.4832 eV
             Fermi-level           -0.1974547 Eh           -5.3730 eV

     #   Z          covCN         q      C6AA      α(0)
     1   7 N        2.670    -0.231    26.056     7.581
     2   6 C        3.752    -0.015    20.900     6.519
     3   6 C        2.744     0.287    22.139     7.704
     4   8 O        0.859    -0.402    21.724     6.249
     5   7 N        2.689    -0.209    25.545     7.506
     6   6 C        3.782     0.014    20.357     6.427
     7   6 C        2.758     0.259    22.632     7.791
     8   6 C        3.805     0.007    20.460     6.439
     9   8 O        0.856    -0.462    22.956     6.424
    10   7 N        2.691    -0.180    24.896     7.411
    11   6 C        3.773    -0.058    21.647     6.630
    12   6 C        2.764     0.268    22.480     7.765
    13   6 C        3.790    -0.085    22.136     6.701
    14   6 C        3.753    -0.025    21.071     6.546
    15   8 O        0.860    -0.439    22.474     6.356
    16   6 C        2.687     0.362    20.853     7.473
    17   7 N        2.693    -0.179    24.872     7.407
    18   8 O        0.857    -0.579    25.601     6.784
    19   8 O        0.858    -0.582    25.674     6.793
    20   6 C        2.763     0.258    22.659     7.795
    21   6 C        3.769     0.020    20.269     6.416
    22   8 O        0.857    -0.429    22.265     6.326
    23   7 N        2.701    -0.206    25.474     7.496
    24   6 C        3.743    -0.121    22.902     6.827
    25   6 C        2.753     0.278    22.287     7.731
    26   6 C        3.749    -0.012    20.849     6.512
    27   8 O        0.857    -0.407    21.814     6.262
    28   7 N        2.681    -0.196    25.254     7.464
    29   6 C        2.753     0.276    22.335     7.739
    30   8 O        0.858    -0.409    21.857     6.268
    31   6 C        3.791    -0.066    21.773     6.645
    32   6 C        3.074    -0.026    28.560     8.762
    33   6 C        2.971    -0.004    28.127     8.699
    34   6 C        3.030    -0.020    28.467     8.752
    35   7 N        2.758    -0.095    23.093     7.137
    36   6 C        3.116     0.031    27.154     8.535
    37   6 C        2.902    -0.028    28.691     8.783
    38   6 C        2.900    -0.049    29.223     8.864
    39   6 C        2.908    -0.030    28.755     8.793
    40   6 C        2.956    -0.040    28.997     8.832
    41   1 H        0.842     0.209     1.066     1.618
    42   1 H        0.919     0.068     2.111     2.272
    43   1 H        0.929     0.076     2.025     2.225
    44   1 H        0.858     0.173     1.258     1.757
    45   1 H        0.928     0.091     1.869     2.138
    46   1 H        0.927     0.074     2.041     2.234
    47   1 H        0.861     0.196     1.129     1.664
    48   1 H        0.928     0.058     2.222     2.331
    49   1 H        0.896     0.081     1.974     2.198
    50   1 H        0.910     0.001     3.037     2.726
    51   1 H        0.927     0.034     2.536     2.490
    52   1 H        0.928     0.087     1.906     2.159
    53   1 H        0.917     0.065     2.141     2.288
    54   1 H        0.862     0.188     1.166     1.692
    55   1 H        0.906     0.064     2.154     2.296
    56   1 H        0.861     0.174     1.247     1.750
    57   1 H        0.928     0.061     2.182     2.310
    58   1 H        0.923     0.058     2.227     2.334
    59   1 H        0.922     0.047     2.360     2.402
    60   1 H        0.924     0.060     2.197     2.318
    61   1 H        0.920     0.072     2.067     2.248
    62   1 H        0.860     0.197     1.120     1.657
    63   1 H        0.929     0.069     2.098     2.265
    64   1 H        0.917     0.048     2.352     2.399
    65   1 H        0.923     0.039     2.469     2.457
    66   1 H        0.860     0.158     1.346     1.817
    67   1 H        0.918     0.019     2.750     2.594
    68   1 H        0.928     0.030     2.586     2.515
    69   1 H        0.919     0.018     2.763     2.600
    70   1 H        0.917     0.007     2.944     2.684

 Mol. C6AA /au·bohr⁶  :      56177.597946
 Mol. C8AA /au·bohr⁸  :    1291848.088626
 Mol. α(0) /au        :        359.582946


Wiberg/Mayer (AO) data.
largest (>0.10) Wiberg bond orders for each atom

 ---------------------------------------------------------------------------
     #   Z sym  total        # sym  WBO       # sym  WBO       # sym  WBO
 ---------------------------------------------------------------------------
     1   7 N    3.350 --     7 C    1.232     2 C    0.989    41 H    0.842
                             9 O    0.171
     2   6 C    3.974 --     1 N    0.989     3 C    0.961    42 H    0.960
                            43 H    0.952
     3   6 C    3.949 --     4 O    1.731     5 N    1.186     2 C    0.961
     4   8 O    2.053 --     3 C    1.731     5 N    0.201
     5   7 N    3.393 --     3 C    1.186     6 C    0.982    44 H    0.939
                             4 O    0.201
     6   6 C    3.963 --     5 N    0.982    29 C    0.962    45 H    0.948
                            31 C    0.942
     7   6 C    3.936 --     9 O    1.644     1 N    1.232     8 C    0.957
     8   6 C    3.954 --    10 N    0.969     7 C    0.957    46 H    0.947
                            11 C    0.941
     9   8 O    1.986 --     7 C    1.644     1 N    0.171
    10   7 N    3.453 --    12 C    1.297     8 C    0.969    47 H    0.914
                            15 O    0.204
    11   6 C    3.976 --    13 C    1.012    48 H    0.977    49 H    0.961
                             8 C    0.941
    12   6 C    3.958 --    15 O    1.663    10 N    1.297    14 C    0.944
    13   6 C    3.973 --    11 C    1.012    50 H    0.955    51 H    0.948
                            16 C    0.868
    14   6 C    3.955 --    17 N    0.975    52 H    0.964    53 H    0.960
                            12 C    0.944
    15   8 O    1.990 --    12 C    1.663    10 N    0.204
    16   6 C    3.946 --    18 O    1.528    19 O    1.518    13 C    0.868
    17   7 N    3.433 --    20 C    1.263    14 C    0.975    54 H    0.936
                            22 O    0.196
    18   8 O    1.855 --    16 C    1.528    19 O    0.239
    19   8 O    1.832 --    16 C    1.518    18 O    0.239
    20   6 C    3.951 --    22 O    1.687    17 N    1.263    21 C    0.922
    21   6 C    3.959 --    23 N    0.990    24 C    0.986    55 H    0.946
                            20 C    0.922
    22   8 O    2.009 --    20 C    1.687    17 N    0.196
    23   7 N    3.407 --    25 C    1.193    21 C    0.990    56 H    0.940
                            27 O    0.189
    24   6 C    3.981 --    21 C    0.986    59 H    0.983    58 H    0.983
                            57 H    0.982
    25   6 C    3.948 --    27 O    1.729    23 N    1.193    26 C    0.954
    26   6 C    3.978 --    28 N    1.017    60 H    0.956    25 C    0.954
                            61 H    0.940
    27   8 O    2.058 --    25 C    1.729    23 N    0.189
    28   7 N    3.371 --    29 C    1.173    26 C    1.017    62 H    0.918
                            30 O    0.187
    29   6 C    3.947 --    30 O    1.739    28 N    1.173     6 C    0.962
    30   8 O    2.040 --    29 C    1.739    28 N    0.187
    31   6 C    3.982 --    32 C    1.012    64 H    0.972    63 H    0.965
                             6 C    0.942
    32   6 C    3.973 --    33 C    1.507    34 C    1.285    31 C    1.012
    33   6 C    3.948 --    32 C    1.507    35 N    1.234    65 H    0.966
    34   6 C    3.978 --    32 C    1.285    37 C    1.262    36 C    1.211
    35   7 N    3.533 --    33 C    1.234    36 C    1.152    66 H    0.939
    36   6 C    3.948 --    38 C    1.363    34 C    1.211    35 N    1.152
    37   6 C    3.990 --    39 C    1.584    34 C    1.262    67 H    0.963
    38   6 C    3.991 --    40 C    1.503    36 C    1.363    68 H    0.966
    39   6 C    3.991 --    37 C    1.584    40 C    1.314    69 H    0.965
    40   6 C    3.987 --    38 C    1.503    39 C    1.314    70 H    0.971
    41   1 H    0.956 --     1 N    0.842
    42   1 H    0.995 --     2 C    0.960
    43   1 H    0.994 --     2 C    0.952
    44   1 H    0.970 --     5 N    0.939
    45   1 H    0.991 --     6 C    0.948
    46   1 H    0.994 --     8 C    0.947
    47   1 H    0.962 --    10 N    0.914
    48   1 H    0.997 --    11 C    0.977
    49   1 H    0.993 --    11 C    0.961
    50   1 H    1.000 --    13 C    0.955
    51   1 H    0.999 --    13 C    0.948
    52   1 H    0.992 --    14 C    0.964
    53   1 H    0.996 --    14 C    0.960
    54   1 H    0.964 --    17 N    0.936
    55   1 H    0.996 --    21 C    0.946
    56   1 H    0.970 --    23 N    0.940
    57   1 H    0.996 --    24 C    0.982
    58   1 H    0.996 --    24 C    0.983
    59   1 H    0.998 --    24 C    0.983
    60   1 H    0.996 --    26 C    0.956
    61   1 H    0.995 --    26 C    0.940
    62   1 H    0.961 --    28 N    0.918
    63   1 H    0.995 --    31 C    0.965
    64   1 H    0.997 --    31 C    0.972
    65   1 H    0.998 --    33 C    0.966
    66   1 H    0.974 --    35 N    0.939
    67   1 H    0.999 --    37 C    0.963
    68   1 H    0.998 --    38 C    0.966
    69   1 H    0.999 --    39 C    0.965
    70   1 H    1.000 --    40 C    0.971
 ---------------------------------------------------------------------------

Topologies differ in total number of bonds
Writing topology from bond orders to xtbtopo.mol

molecular dipole:
                 x           y           z       tot (Debye)
 q only:        3.729       8.846       7.076
   full:        4.002       8.999       7.012      30.730
molecular quadrupole (traceless):
                xx          xy          yy          xz          yz          zz
 q only:       58.426     -38.588     -51.582     -28.567    -118.670      -6.843
  q+dip:       49.401     -39.183     -45.453     -25.099    -126.059      -3.948
   full:       52.503     -40.180     -47.825     -26.491    -124.397      -4.678


           -------------------------------------------------
          | TOTAL ENERGY             -122.042157496398 Eh   |
          | GRADIENT NORM               0.312030988124 Eh/α |
          | HOMO-LUMO GAP               0.483185642352 eV   |
           -------------------------------------------------

------------------------------------------------------------------------
 * finished run on 2026/05/23 at 08:16:58.510     
------------------------------------------------------------------------
 total:
 * wall-time:     0 d,  0 h,  0 min,  9.866 sec
 *  cpu-time:     0 d,  0 h,  0 min, 18.585 sec
 * ratio c/w:     1.884 speedup
 SCF:
 * wall-time:     0 d,  0 h,  0 min,  9.180 sec
 *  cpu-time:     0 d,  0 h,  0 min, 17.948 sec
 * ratio c/w:     1.955 speedup

normal termination of xtb
