      -----------------------------------------------------------      
     |                   =====================                   |     
     |                           x T B                           |     
     |                   =====================                   |     
     |                         S. Grimme                         |     
     |          Mulliken Center for Theoretical Chemistry        |     
     |                    University of Bonn                     |     
      -----------------------------------------------------------      

   * xtb version 6.7.1 (edcfbbe) compiled by 'albert@albert-system' on 2024-07-22

   xtb is free software: you can redistribute it and/or modify it under
   the terms of the GNU Lesser General Public License as published by
   the Free Software Foundation, either version 3 of the License, or
   (at your option) any later version.
   
   xtb is distributed in the hope that it will be useful,
   but WITHOUT ANY WARRANTY; without even the implied warranty of
   MERCHANTABILITY or FITNESS FOR A PARTICULAR PURPOSE.  See the
   GNU Lesser General Public License for more details.
   
   Cite this work as:
   * C. Bannwarth, E. Caldeweyher, S. Ehlert, A. Hansen, P. Pracht,
     J. Seibert, S. Spicher, S. Grimme, WIREs Comput. Mol. Sci., 2020, 11,
     e01493. DOI: 10.1002/wcms.1493
   
   for GFN2-xTB:
   * C. Bannwarth, S. Ehlert and S. Grimme., J. Chem. Theory Comput., 2019,
     15, 1652-1671. DOI: 10.1021/acs.jctc.8b01176
   for GFN1-xTB:
   * S. Grimme, C. Bannwarth, P. Shushkov, J. Chem. Theory Comput., 2017,
     13, 1989-2009. DOI: 10.1021/acs.jctc.7b00118
   for GFN0-xTB:
   * P. Pracht, E. Caldeweyher, S. Ehlert, S. Grimme, ChemRxiv, 2019, preprint.
     DOI: 10.26434/chemrxiv.8326202.v1
   for GFN-FF:
   * S. Spicher and S. Grimme, Angew. Chem. Int. Ed., 2020, 59, 15665-15673.
     DOI: 10.1002/anie.202004239
   
   for ALPB and GBSA implicit solvation:
   * S. Ehlert, M. Stahn, S. Spicher, S. Grimme, J. Chem. Theory Comput.,
     2021, 17, 4250-4261. DOI: 10.1021/acs.jctc.1c00471
   
   for ddCOSMO and CPCM-X implicit solvation:
   * M. Stahn, S. Ehlert, S. Grimme, J. Phys. Chem. A,
     2023, XX, XXXX-XXXX. DOI: 10.1021/acs.jpca.3c04382
   
   for DFT-D4:
   * E. Caldeweyher, C. Bannwarth and S. Grimme, J. Chem. Phys., 2017,
     147, 034112. DOI: 10.1063/1.4993215
   * E. Caldeweyher, S. Ehlert, A. Hansen, H. Neugebauer, S. Spicher,
     C. Bannwarth and S. Grimme, J. Chem. Phys., 2019, 150, 154122.
     DOI: 10.1063/1.5090222
   * E. Caldeweyher, J.-M. Mewes, S. Ehlert and S. Grimme, Phys. Chem. Chem. Phys.
     2020, 22, 8499-8512. DOI: 10.1039/D0CP00502A
   
   for sTDA-xTB:
   * S. Grimme and C. Bannwarth, J. Chem. Phys., 2016, 145, 054103.
     DOI: 10.1063/1.4959605
   
   in the mass-spec context:
   * V. Asgeirsson, C. Bauer and S. Grimme, Chem. Sci., 2017, 8, 4879.
     DOI: 10.1039/c7sc00601b
   * J. Koopman and S. Grimme, ACS Omega 2019, 4, 12, 15120-15133.
     DOI: 10.1021/acsomega.9b02011
   
   for metadynamics refer to:
   * S. Grimme, J. Chem. Theory Comput., 2019, 155, 2847-2862
     DOI: 10.1021/acs.jctc.9b00143
   
   for SPH calculations refer to:
   * S. Spicher and S. Grimme, J. Chem. Theory Comput., 2021, 17, 1701-1714
     DOI: 10.1021/acs.jctc.0c01306
   
   for ONIOM refer to:
   * C. Plett, A. Katbashev, S. Ehlert, S. Grimme, M. Bursch,
     Phys. Chem. Chem. Phys., 2023, 25, 17860-17868. DOI: 10.1039/D3CP02178E
   
   for DIPRO refer to:
   * J. Kohn, N. Gildemeister, S. Grimme, D. Fazzi, A. Hansen,
     J. Chem. Phys., 2023, just accepted.
   
   for PTB refer to:
   * S. Grimme, M. Mueller, A. Hansen, J. Chem. Phys., 2023, 158, 124111.
     DOI: 10.1063/5.0137838
   
   with help from (in alphabetical order)
   P. Atkinson, C. Bannwarth, F. Bohle, G. Brandenburg, E. Caldeweyher
   M. Checinski, S. Dohm, S. Ehlert, S. Ehrlich, I. Gerasimov, C. Hölzer
   A. Katbashev, J. Kohn, J. Koopman, C. Lavigne, S. Lehtola, F. März, M. Müller,
   F. Musil, H. Neugebauer, J. Pisarek, C. Plett, P. Pracht, F. Pultar,
   J. Seibert, P. Shushkov, S. Spicher, M. Stahn, M. Steiner, T. Strunk,
   J. Stückrath, T. Rose, and J. Unsleber
   
 * started run on 2026/05/23 at 12:41:59.437     
   ID    Z sym.   atoms
    1    7 N      1, 5, 10, 17, 22, 26, 27, 33, 41
    2    6 C      2, 3, 6-8, 11-14, 16, 18-21, 23, 28-30, 34-39
    3    8 O      4, 9, 15, 24, 25, 31, 32, 40
    4    1 H      42-82

           -------------------------------------------------
          |                Calculation Setup                |
           -------------------------------------------------

          program call               : /home/xchen/software/xtb-6.7.1/xtb-dist/bin/xtb /home/xchen/Test/benchmark/md_sampled/09_5_0584_0/snap_0148.xyz --charge 0 --gfn 2 --norestart
          coordinate file            : /home/xchen/Test/benchmark/md_sampled/09_5_0584_0/snap_0148.xyz
          omp threads                :                    48


           -------------------------------------------------
          |                 G F N 2 - x T B                 |
           -------------------------------------------------

        Reference                      10.1021/acs.jctc.8b01176
      * Hamiltonian:
        H0-scaling (s, p, d)           1.850000    2.230000    2.230000
        zeta-weighting                 0.500000
      * Dispersion:
        s8                             2.700000
        a1                             0.520000
        a2                             5.000000
        s9                             5.000000
      * Repulsion:
        kExp                           1.500000    1.000000
        rExp                           1.000000
      * Coulomb:
        alpha                          2.000000
        third order                    shell-resolved
        anisotropic                    true
        a3                             3.000000
        a5                             4.000000
        cn-shift                       1.200000
        cn-exp                         4.000000
        max-rad                        5.000000


          ...................................................
          :                      SETUP                      :
          :.................................................:
          :  # basis functions                 205          :
          :  # atomic orbitals                 205          :
          :  # shells                          123          :
          :  # electrons                       230          :
          :  max. iterations                   250          :
          :  Hamiltonian                  GFN2-xTB          :
          :  restarted?                      false          :
          :  GBSA solvation                  false          :
          :  PC potential                    false          :
          :  electronic temp.          300.0000000     K    :
          :  accuracy                    1.0000000          :
          :  -> integral cutoff          0.2500000E+02      :
          :  -> integral neglect         0.1000000E-07      :
          :  -> SCF convergence          0.1000000E-05 Eh   :
          :  -> wf. convergence          0.1000000E-03 e    :
          :  Broyden damping             0.4000000          :
          :  net charge                          0          :
          :  unpaired electrons                  0          :
          ...................................................

 iter      E             dE          RMSdq      gap      omega  full diag
   1   -132.1090734 -0.132109E+03  0.426E+00    3.82       0.0  T
   2   -132.5128358 -0.403762E+00  0.220E+00    3.35       1.0  T
   3   -132.5307645 -0.179287E-01  0.124E+00    3.49       1.0  T
   4   -132.5334923 -0.272776E-02  0.242E-01    3.04       1.0  T
   5   -132.5369585 -0.346626E-02  0.918E-02    3.12       1.0  T
   6   -132.5369962 -0.376622E-04  0.399E-02    3.09       1.0  T
   7   -132.5370056 -0.938657E-05  0.135E-02    3.10       1.0  T
   8   -132.5370099 -0.428942E-05  0.516E-03    3.10       2.1  T
   9   -132.5370102 -0.315457E-06  0.209E-03    3.10       5.3  T
  10   -132.5370102 -0.531186E-07  0.779E-04    3.10      14.2  T
  11   -132.5370103 -0.151482E-07  0.248E-04    3.10      44.5  T

   *** convergence criteria satisfied after 11 iterations ***

         #    Occupation            Energy/Eh            Energy/eV
      -------------------------------------------------------------
         1        2.0000           -0.7341796             -19.9780
       ...           ...                  ...                  ...
       109        2.0000           -0.4043081             -11.0018
       110        2.0000           -0.4036232             -10.9831
       111        2.0000           -0.3981165             -10.8333
       112        2.0000           -0.3945030             -10.7350
       113        2.0000           -0.3929205             -10.6919
       114        2.0000           -0.3827461             -10.4151
       115        2.0000           -0.3612917              -9.8312 (HOMO)
       116                         -0.2475319              -6.7357 (LUMO)
       117                         -0.2455640              -6.6821
       118                         -0.2417627              -6.5787
       119                         -0.2395462              -6.5184
       120                         -0.2295345              -6.2460
       ...                                ...                  ...
       205                          0.7100245              19.3207
      -------------------------------------------------------------
                  HL-Gap            0.1137598 Eh            3.0956 eV
             Fermi-level           -0.3044118 Eh           -8.2835 eV

 SCC (total)                   0 d,  0 h,  0 min,  8.099 sec
 SCC setup                      ...        0 min,  0.029 sec (  0.359%)
 Dispersion                     ...        0 min,  0.071 sec (  0.882%)
 classical contributions        ...        0 min,  0.007 sec (  0.085%)
 integral evaluation            ...        0 min,  0.270 sec (  3.338%)
 iterations                     ...        0 min,  7.365 sec ( 90.943%)
 molecular gradient             ...        0 min,  0.340 sec (  4.202%)
 printout                       ...        0 min,  0.015 sec (  0.190%)

         :::::::::::::::::::::::::::::::::::::::::::::::::::::
         ::                     SUMMARY                     ::
         :::::::::::::::::::::::::::::::::::::::::::::::::::::
         :: total energy            -131.085087723373 Eh    ::
         :: gradient norm              0.325988993634 Eh/a0 ::
         :: HOMO-LUMO gap              3.095561335348 eV    ::
         ::.................................................::
         :: SCC energy              -132.534528691519 Eh    ::
         :: -> isotropic ES            0.319229783427 Eh    ::
         :: -> anisotropic ES          0.015017738639 Eh    ::
         :: -> anisotropic XC          0.042102377451 Eh    ::
         :: -> dispersion             -0.092509652252 Eh    ::
         :: repulsion energy           1.449440968146 Eh    ::
         :: add. restraining           0.000000000000 Eh    ::
         :: total charge              -0.000000000000 e     ::
         :::::::::::::::::::::::::::::::::::::::::::::::::::::

           -------------------------------------------------
          |                Property Printout                |
           -------------------------------------------------

    * Orbital Energies and Occupations

         #    Occupation            Energy/Eh            Energy/eV
      -------------------------------------------------------------
         1        2.0000           -0.7341796             -19.9780
       ...           ...                  ...                  ...
       103        2.0000           -0.4298748             -11.6975
       104        2.0000           -0.4274574             -11.6317
       105        2.0000           -0.4189809             -11.4010
       106        2.0000           -0.4166688             -11.3381
       107        2.0000           -0.4107982             -11.1784
       108        2.0000           -0.4075288             -11.0894
       109        2.0000           -0.4043081             -11.0018
       110        2.0000           -0.4036232             -10.9831
       111        2.0000           -0.3981165             -10.8333
       112        2.0000           -0.3945030             -10.7350
       113        2.0000           -0.3929205             -10.6919
       114        2.0000           -0.3827461             -10.4151
       115        2.0000           -0.3612917              -9.8312 (HOMO)
       116                         -0.2475319              -6.7357 (LUMO)
       117                         -0.2455640              -6.6821
       118                         -0.2417627              -6.5787
       119                         -0.2395462              -6.5184
       120                         -0.2295345              -6.2460
       121                         -0.2229242              -6.0661
       122                         -0.2153682              -5.8605
       123                         -0.2065118              -5.6195
       124                         -0.0712724              -1.9394
       125                         -0.0632909              -1.7222
       126                         -0.0588326              -1.6009
       ...                                ...                  ...
       205                          0.7100245              19.3207
      -------------------------------------------------------------
                  HL-Gap            0.1137598 Eh            3.0956 eV
             Fermi-level           -0.3044118 Eh           -8.2835 eV

     #   Z          covCN         q      C6AA      α(0)
     1   7 N        2.688    -0.186    25.028     7.430
     2   6 C        3.803     0.034    20.003     6.367
     3   6 C        2.750     0.252    22.767     7.813
     4   8 O        0.856    -0.447    22.646     6.380
     5   7 N        2.697    -0.175    24.792     7.395
     6   6 C        3.782     0.026    20.162     6.396
     7   6 C        2.762     0.287    22.134     7.705
     8   6 C        3.765     0.017    20.325     6.426
     9   8 O        0.862    -0.415    21.984     6.286
    10   7 N        2.695    -0.195    25.228     7.460
    11   6 C        3.820    -0.064    21.706     6.630
    12   6 C        2.763     0.278    22.302     7.734
    13   6 C        3.801    -0.062    21.682     6.630
    14   6 C        3.789     0.025    20.174     6.397
    15   8 O        0.860    -0.409    21.870     6.270
    16   6 C        3.787    -0.062    21.709     6.636
    17   7 N        2.676    -0.185    25.006     7.427
    18   6 C        3.814    -0.096    22.321     6.724
    19   6 C        3.733     0.004    20.603     6.478
    20   6 C        2.748     0.269    22.456     7.759
    21   6 C        2.743     0.279    22.269     7.727
    22   7 N        2.624    -0.349    28.980     7.995
    23   6 C        3.760     0.033    20.070     6.387
    24   8 O        0.858    -0.432    22.327     6.335
    25   8 O        0.860    -0.451    22.734     6.393
    26   7 N        2.635    -0.251    26.534     7.650
    27   7 N        2.686    -0.197    25.282     7.468
    28   6 C        3.792    -0.089    22.213     6.712
    29   6 C        2.754     0.256    22.686     7.800
    30   6 C        2.762     0.285    22.170     7.711
    31   8 O        0.859    -0.394    21.565     6.226
    32   8 O        0.864    -0.451    22.723     6.391
    33   7 N        2.641    -0.262    26.796     7.688
    34   6 C        3.858    -0.020    20.895     6.501
    35   6 C        3.744    -0.108    22.637     6.787
    36   6 C        3.748    -0.117    22.811     6.812
    37   6 C        3.803    -0.053    21.526     6.605
    38   6 C        3.803    -0.094    22.297     6.723
    39   6 C        2.742     0.290    22.085     7.695
    40   8 O        0.858    -0.385    21.381     6.199
    41   7 N        2.627    -0.311    28.008     7.860
    42   1 H        0.859     0.217     1.021     1.583
    43   1 H        0.922     0.038     2.482     2.464
    44   1 H        0.858     0.186     1.179     1.701
    45   1 H        0.922     0.073     2.058     2.244
    46   1 H        0.868     0.078     2.016     2.223
    47   1 H        0.861     0.186     1.180     1.702
    48   1 H        0.925     0.038     2.475     2.460
    49   1 H        0.925     0.058     2.227     2.334
    50   1 H        0.919     0.028     2.622     2.533
    51   1 H        0.925     0.029     2.608     2.525
    52   1 H        0.926     0.078     2.001     2.212
    53   1 H        0.909     0.014     2.833     2.633
    54   1 H        0.921     0.036     2.498     2.472
    55   1 H        0.858     0.211     1.054     1.608
    56   1 H        0.924     0.066     2.133     2.284
    57   1 H        0.926     0.059     2.212     2.326
    58   1 H        0.928     0.059     2.210     2.325
    59   1 H        0.924     0.053     2.281     2.362
    60   1 H        0.860     0.131     1.537     1.942
    61   1 H        0.860     0.139     1.479     1.905
    62   1 H        0.885     0.077     2.020     2.225
    63   1 H        0.851     0.207     1.073     1.623
    64   1 H        0.861     0.190     1.161     1.688
    65   1 H        0.857     0.207     1.069     1.620
    66   1 H        0.910     0.038     2.482     2.464
    67   1 H        0.922     0.086     1.916     2.165
    68   1 H        0.862     0.191     1.151     1.681
    69   1 H        0.861     0.215     1.030     1.590
    70   1 H        0.926     0.070     2.081     2.256
    71   1 H        0.928     0.044     2.397     2.421
    72   1 H        0.918     0.035     2.521     2.483
    73   1 H        0.915     0.043     2.416     2.431
    74   1 H        0.926     0.057     2.238     2.339
    75   1 H        0.921     0.040     2.448     2.447
    76   1 H        0.926     0.043     2.406     2.425
    77   1 H        0.915     0.056     2.250     2.346
    78   1 H        0.926     0.063     2.162     2.299
    79   1 H        0.925     0.068     2.109     2.271
    80   1 H        0.924     0.072     2.068     2.249
    81   1 H        0.857     0.180     1.217     1.728
    82   1 H        0.859     0.171     1.267     1.763

 Mol. C6AA /au·bohr⁶  :      63128.818517
 Mol. C8AA /au·bohr⁸  :    1391937.242513
 Mol. α(0) /au        :        374.362879


Wiberg/Mayer (AO) data.
largest (>0.10) Wiberg bond orders for each atom

 ---------------------------------------------------------------------------
     #   Z sym  total        # sym  WBO       # sym  WBO       # sym  WBO
 ---------------------------------------------------------------------------
     1   7 N    3.419 --     7 C    1.237     2 C    1.004    42 H    0.881
                             9 O    0.191
     2   6 C    3.973 --     1 N    1.004    34 C    0.950     3 C    0.941
                            43 H    0.934
     3   6 C    3.943 --     4 O    1.638     5 N    1.267     2 C    0.941
     4   8 O    1.980 --     3 C    1.638     5 N    0.193
     5   7 N    3.457 --     3 C    1.267     6 C    0.982    44 H    0.919
                             4 O    0.193
     6   6 C    3.964 --    37 C    1.003     5 N    0.982    45 H    0.954
                            29 C    0.891
     7   6 C    3.958 --     9 O    1.705     1 N    1.237     8 C    0.946
     8   6 C    3.953 --    11 C    0.985    10 N    0.970     7 C    0.946
                            46 H    0.911
     9   8 O    2.019 --     7 C    1.705     1 N    0.191
    10   7 N    3.447 --    12 C    1.260     8 C    0.970    47 H    0.921
                            15 O    0.209
    11   6 C    3.994 --    13 C    1.017     8 C    0.985    49 H    0.968
                            48 H    0.960
    12   6 C    3.954 --    15 O    1.705    10 N    1.260    14 C    0.917
    13   6 C    3.995 --    11 C    1.017    16 C    0.994    51 H    0.976
                            50 H    0.973
    14   6 C    3.966 --    18 C    1.002    17 N    0.963    52 H    0.955
                            12 C    0.917
    15   8 O    2.043 --    12 C    1.705    10 N    0.209
    16   6 C    3.985 --    19 C    1.009    13 C    0.994    53 H    0.965
                            54 H    0.945
    17   7 N    3.429 --    20 C    1.263    14 C    0.963    55 H    0.923
                            24 O    0.195
    18   6 C    3.996 --    14 C    1.002    57 H    0.964    21 C    0.957
                            56 H    0.944
    19   6 C    3.981 --    22 N    1.012    16 C    1.009    59 H    0.973
                            58 H    0.968
    20   6 C    3.942 --    24 O    1.674    17 N    1.263    23 C    0.916
    21   6 C    3.952 --    25 O    1.662    26 N    1.298    18 C    0.957
    22   7 N    3.002 --    19 C    1.012    61 H    0.972    60 H    0.971
    23   6 C    3.970 --    27 N    1.027    28 C    0.941    62 H    0.933
                            20 C    0.916
    24   8 O    2.046 --    20 C    1.674    17 N    0.195
    25   8 O    1.975 --    21 C    1.662    26 N    0.197
    26   7 N    3.397 --    21 C    1.298    64 H    0.943    63 H    0.927
                            25 O    0.197
    27   7 N    3.410 --    29 C    1.207    23 C    1.027    65 H    0.889
                            31 O    0.190
    28   6 C    3.984 --    30 C    0.987    66 H    0.966    67 H    0.947
                            23 C    0.941
    29   6 C    3.943 --    31 O    1.747    27 N    1.207     6 C    0.891
    30   6 C    3.956 --    32 O    1.658    33 N    1.274    28 C    0.987
    31   8 O    2.066 --    29 C    1.747    27 N    0.190
    32   8 O    1.963 --    30 C    1.658    33 N    0.184
    33   7 N    3.371 --    30 C    1.274    68 H    0.945    69 H    0.929
                            32 O    0.184
    34   6 C    3.987 --    35 C    1.024    36 C    0.995    70 H    0.957
                             2 C    0.950
    35   6 C    3.991 --    34 C    1.024    71 H    0.984    72 H    0.980
                            73 H    0.977
    36   6 C    3.992 --    34 C    0.995    76 H    0.989    75 H    0.986
                            74 H    0.984
    37   6 C    3.991 --     6 C    1.003    38 C    0.981    78 H    0.968
                            77 H    0.965
    38   6 C    3.990 --    37 C    0.981    39 C    0.980    80 H    0.968
                            79 H    0.962
    39   6 C    3.937 --    40 O    1.794    41 N    1.127    38 C    0.980
    40   8 O    2.056 --    39 C    1.794    41 N    0.151
    41   7 N    3.195 --    39 C    1.127    81 H    0.948    82 H    0.937
                            40 O    0.151
    42   1 H    0.952 --     1 N    0.881
    43   1 H    0.998 --     2 C    0.934
    44   1 H    0.965 --     5 N    0.919
    45   1 H    0.994 --     6 C    0.954
    46   1 H    0.993 --     8 C    0.911
    47   1 H    0.965 --    10 N    0.921
    48   1 H    0.998 --    11 C    0.960
    49   1 H    0.996 --    11 C    0.968
    50   1 H    0.999 --    13 C    0.973
    51   1 H    0.999 --    13 C    0.976
    52   1 H    0.993 --    14 C    0.955
    53   1 H    1.000 --    16 C    0.965
    54   1 H    0.999 --    16 C    0.945
    55   1 H    0.955 --    17 N    0.923
    56   1 H    0.996 --    18 C    0.944
    57   1 H    0.996 --    18 C    0.964
    58   1 H    0.996 --    19 C    0.968
    59   1 H    0.997 --    19 C    0.973
    60   1 H    0.983 --    22 N    0.971
    61   1 H    0.981 --    22 N    0.972
    62   1 H    0.994 --    23 C    0.933
    63   1 H    0.956 --    26 N    0.927
    64   1 H    0.964 --    26 N    0.943
    65   1 H    0.957 --    27 N    0.889
    66   1 H    0.999 --    28 C    0.966
    67   1 H    0.992 --    28 C    0.947
    68   1 H    0.963 --    33 N    0.945
    69   1 H    0.953 --    33 N    0.929
    70   1 H    0.995 --    34 C    0.957
    71   1 H    0.998 --    35 C    0.984
    72   1 H    0.999 --    35 C    0.980
    73   1 H    0.998 --    35 C    0.977
    74   1 H    0.997 --    36 C    0.984
    75   1 H    0.998 --    36 C    0.986
    76   1 H    0.998 --    36 C    0.989
    77   1 H    0.997 --    37 C    0.965
    78   1 H    0.996 --    37 C    0.968
    79   1 H    0.995 --    38 C    0.962
    80   1 H    0.995 --    38 C    0.968
    81   1 H    0.967 --    41 N    0.948
    82   1 H    0.971 --    41 N    0.937
 ---------------------------------------------------------------------------

Topologies differ in total number of bonds
Writing topology from bond orders to xtbtopo.mol

molecular dipole:
                 x           y           z       tot (Debye)
 q only:       -1.459       2.226      -2.880
   full:       -1.990       3.110      -3.328      12.633
molecular quadrupole (traceless):
                xx          xy          yy          xz          yz          zz
 q only:       -2.608     -11.964      21.204       1.249     -30.960     -18.597
  q+dip:       -7.510     -23.512      23.753      -6.924     -42.201     -16.243
   full:       -6.752     -23.329      23.591      -7.005     -42.439     -16.839


           -------------------------------------------------
          | TOTAL ENERGY             -131.085087723373 Eh   |
          | GRADIENT NORM               0.325988993634 Eh/α |
          | HOMO-LUMO GAP               3.095561335348 eV   |
           -------------------------------------------------

------------------------------------------------------------------------
 * finished run on 2026/05/23 at 12:42:08.143     
------------------------------------------------------------------------
 total:
 * wall-time:     0 d,  0 h,  0 min,  8.705 sec
 *  cpu-time:     0 d,  0 h,  0 min, 13.794 sec
 * ratio c/w:     1.585 speedup
 SCF:
 * wall-time:     0 d,  0 h,  0 min,  8.099 sec
 *  cpu-time:     0 d,  0 h,  0 min, 13.114 sec
 * ratio c/w:     1.619 speedup

normal termination of xtb
