      -----------------------------------------------------------      
     |                   =====================                   |     
     |                           x T B                           |     
     |                   =====================                   |     
     |                         S. Grimme                         |     
     |          Mulliken Center for Theoretical Chemistry        |     
     |                    University of Bonn                     |     
      -----------------------------------------------------------      

   * xtb version 6.7.1 (26dd68d) compiled by 'froitzheim@fs7' on 2026-05-14

   xtb is free software: you can redistribute it and/or modify it under
   the terms of the GNU Lesser General Public License as published by
   the Free Software Foundation, either version 3 of the License, or
   (at your option) any later version.
   
   xtb is distributed in the hope that it will be useful,
   but WITHOUT ANY WARRANTY; without even the implied warranty of
   MERCHANTABILITY or FITNESS FOR A PARTICULAR PURPOSE.  See the
   GNU Lesser General Public License for more details.
   
   Cite this work as:
   * C. Bannwarth, E. Caldeweyher, S. Ehlert, A. Hansen, P. Pracht,
     J. Seibert, S. Spicher, S. Grimme, WIREs Comput. Mol. Sci., 2020, 11,
     e01493. DOI: 10.1002/wcms.1493
   
   for g-xTB:
   * T. Froitzheim, M. Müller, A. Hansen, S. Grimme, ChemRxiv, 2025, preprint.
     DOI: 10.26434/chemrxiv-2025-bjxv
   for GFN2-xTB:
   * C. Bannwarth, S. Ehlert and S. Grimme., J. Chem. Theory Comput., 2019,
     15, 1652-1671. DOI: 10.1021/acs.jctc.8b01176
   for GFN1-xTB:
   * S. Grimme, C. Bannwarth, P. Shushkov, J. Chem. Theory Comput., 2017,
     13, 1989-2009. DOI: 10.1021/acs.jctc.7b00118
   for GFN0-xTB:
   * P. Pracht, E. Caldeweyher, S. Ehlert, S. Grimme, ChemRxiv, 2019, preprint.
     DOI: 10.26434/chemrxiv.8326202.v1
   for GFN-FF:
   * S. Spicher and S. Grimme, Angew. Chem. Int. Ed., 2020, 59, 15665-15673.
     DOI: 10.1002/anie.202004239
   
   for ALPB and GBSA implicit solvation:
   * S. Ehlert, M. Stahn, S. Spicher, S. Grimme, J. Chem. Theory Comput.,
     2021, 17, 4250-4261. DOI: 10.1021/acs.jctc.1c00471
   
   for ddCOSMO and CPCM-X implicit solvation:
   * M. Stahn, S. Ehlert, S. Grimme, J. Phys. Chem. A,
     2023, XX, XXXX-XXXX. DOI: 10.1021/acs.jpca.3c04382
   
   for DFT-D4:
   * E. Caldeweyher, C. Bannwarth and S. Grimme, J. Chem. Phys., 2017,
     147, 034112. DOI: 10.1063/1.4993215
   * E. Caldeweyher, S. Ehlert, A. Hansen, H. Neugebauer, S. Spicher,
     C. Bannwarth and S. Grimme, J. Chem. Phys., 2019, 150, 154122.
     DOI: 10.1063/1.5090222
   * E. Caldeweyher, J.-M. Mewes, S. Ehlert and S. Grimme, Phys. Chem. Chem. Phys.
     2020, 22, 8499-8512. DOI: 10.1039/D0CP00502A
   
   for sTDA-xTB:
   * S. Grimme and C. Bannwarth, J. Chem. Phys., 2016, 145, 054103.
     DOI: 10.1063/1.4959605
   
   in the mass-spec context:
   * V. Asgeirsson, C. Bauer and S. Grimme, Chem. Sci., 2017, 8, 4879.
     DOI: 10.1039/c7sc00601b
   * J. Koopman and S. Grimme, ACS Omega 2019, 4, 12, 15120-15133.
     DOI: 10.1021/acsomega.9b02011
   
   for metadynamics refer to:
   * S. Grimme, J. Chem. Theory Comput., 2019, 155, 2847-2862
     DOI: 10.1021/acs.jctc.9b00143
   
   for SPH calculations refer to:
   * S. Spicher and S. Grimme, J. Chem. Theory Comput., 2021, 17, 1701-1714
     DOI: 10.1021/acs.jctc.0c01306
   
   for ONIOM refer to:
   * C. Plett, A. Katbashev, S. Ehlert, S. Grimme, M. Bursch,
     Phys. Chem. Chem. Phys., 2023, 25, 17860-17868. DOI: 10.1039/D3CP02178E
   
   for DIPRO refer to:
   * J. Kohn, N. Gildemeister, S. Grimme, D. Fazzi, A. Hansen,
     J. Chem. Phys. 159, 144106 (2023). DOI: 10.1063/5.0167484
   
   for PTB refer to:
   * S. Grimme, M. Mueller, A. Hansen, J. Chem. Phys., 2023, 158, 124111.
     DOI: 10.1063/5.0137838
   
   with help from (in alphabetical order)
   P. Atkinson, C. Bannwarth, F. Bohle, G. Brandenburg, E. Caldeweyher,
   M. Checinski, S. Dohm, S. Ehlert, S. Ehrlich, M. Friede, T. Froitzheim,
   I. Gerasimov, C. Hölzer, A. Katbashev, J. Kohn, J. Koopman, C. Lavigne,
   S. Lehtola, F. März, M. Müller, F. Musil, H. Neugebauer, J. Pisarek,
   C. Plett, P. Pracht, F. Pultar, J. Seibert, P. Shushkov, S. Spicher,
   M. Stahn, M. Steiner, T. Strunk, J. Stückrath, T. Rose, and J. Unsleber
   
 * started run on 2026/05/23 at 12:42:08.823     
   ID    Z sym.   atoms
    1    7 N      1, 5, 10, 17, 22, 26, 27, 33, 41
    2    6 C      2, 3, 6-8, 11-14, 16, 18-21, 23, 28-30, 34-39
    3    8 O      4, 9, 15, 24, 25, 31, 32, 40
    4    1 H      42-82

           -------------------------------------------------
          |                Calculation Setup                |
           -------------------------------------------------

          program call               : /home/xchen/software/xtb-6.7.1-gxtb/bin/xtb /home/xchen/Test/benchmark/md_sampled/09_5_0584_0/snap_0148.xyz --charge 0 --gxtb --norestart
          coordinate file            : /home/xchen/Test/benchmark/md_sampled/09_5_0584_0/snap_0148.xyz
          omp threads                :                    48

core increment energy         -1.8448408193529E+03 Eh
dispersion energy              1.6563401297446E-02 Eh
molecular charge               0.0000000000000E+00 e
number of electrons            2.2999999999795E+02 e
number of unpaired electrons   0.0000000000000E+00 e
wavefunction                   restricted
integral cutoff                2.6907767250513E+01 bohr
energy convergence             1.0000000000000E-06 Eh
density convergence            2.0000000000000E-05 e

------------------------------------------------------------
  cycle        total energy    energy error   density error
------------------------------------------------------------
      1     -2032.848943341  -1.8802469E+02   0.0000000E+00
      2     -2033.191029740  -3.4208640E-01   2.2388173E-02
      3     -2033.415450010  -2.2442027E-01   1.7893819E-02
      4     -2033.904262379  -4.8881237E-01   1.4312390E-02
      5     -2033.911639004  -7.3766253E-03   1.1290510E-03
      6     -2033.912247148  -6.0814405E-04   2.6239112E-04
      7     -2033.912303405  -5.6257194E-05   9.2479795E-05
      8     -2033.912307401  -3.9951850E-06   1.9667718E-05
      9     -2033.912307784  -3.8301260E-07   3.9109943E-06
------------------------------------------------------------

electronic energy             -1.8908805183208E+02 Eh
total energy                  -2.0339123077837E+03 Eh

Post processing:
 | Mayer-Wiberg bond orders
 | Molecular Multipole Moments

 total:                                  13.706 sec
 - increment                              0.000 sec (  0%)
 - repulsion                              0.016 sec (  0%)
 - dispersion                             0.306 sec (  2%)
 - coulomb                                0.153 sec (  1%)
 - exchange                               0.007 sec (  0%)
 - hamiltonian                            0.419 sec (  3%)
 - acp                                    0.203 sec (  1%)
 - spin polarization                      0.000 sec (  0%)
 - post processing                        0.128 sec (  0%)
 - scc                                   11.222 sec ( 81%)
 - coulomb gradient                       0.073 sec (  0%)
 - dispersion gradient                    0.178 sec (  1%)
 - exchange gradient                      0.186 sec (  1%)
 - repulsion gradient                     0.007 sec (  0%)
 - acp gradient                           0.396 sec (  2%)
 - hamiltonian gradient                   0.535 sec (  3%)
 - gradient                               1.375 sec ( 10%)

         :::::::::::::::::::::::::::::::::::::::::::::::::::::
         ::                     SUMMARY                     ::
         :::::::::::::::::::::::::::::::::::::::::::::::::::::
         :: total energy           -2033.912307783682 Eh    ::
         :: gradient norm              0.355517616845 Eh/a0 ::
         :: HOMO-LUMO gap              9.630344788543 eV    ::
         ::.................................................::
         :: add. restraining           0.000000000000 Eh    ::
         :: total charge              -0.000000000000 e     ::
         :::::::::::::::::::::::::::::::::::::::::::::::::::::

           -------------------------------------------------
          |                Property Printout                |
           -------------------------------------------------

    * Orbital Energies and Occupations
------------------------------------------------------------------
      #    Occupation            Energy/Eh            Energy/eV
------------------------------------------------------------------
      1        2.0000           -1.3572264             -36.9320
    ...           ...                  ...                  ...
    103        2.0000           -0.3907928             -10.6340
    104        2.0000           -0.3905758             -10.6281
    105        2.0000           -0.3825749             -10.4104
    106        2.0000           -0.3760329             -10.2324
    107        2.0000           -0.3728179             -10.1449
    108        2.0000           -0.3716322             -10.1126
    109        2.0000           -0.3668685              -9.9830
    110        2.0000           -0.3661092              -9.9623
    111        2.0000           -0.3628720              -9.8742
    112        2.0000           -0.3605806              -9.8119
    113        2.0000           -0.3530757              -9.6077
    114        2.0000           -0.3511995              -9.5566
    115        2.0000           -0.3466673              -9.4333 (HOMO)
    116                          0.0072414               0.1970 (LUMO)
    117                          0.0105555               0.2872
    118                          0.0135272               0.3681
    119                          0.0163188               0.4441
    120                          0.0272787               0.7423
    121                          0.0393526               1.0708
    122                          0.0417295               1.1355
    123                          0.0480397               1.3072
    124                          0.1317364               3.5847
    125                          0.1500433               4.0829
    126                          0.1579734               4.2987
    ...                                ...                  ...
    205                          0.7538617              20.5136
------------------------------------------------------------------
               HL-Gap            0.3539086 Eh            9.6303 eV
------------------------------------------------------------------

Atomic charges and shell populations (in atomic units):
------------------------------------------------------
     #    Z                q          p(s)       p(p)
------------------------------------------------------
     1    7 N      -0.334996      1.353042   3.981954
     2    6 C       0.022197      1.116717   2.861086
     3    6 C       0.403059      1.123498   2.473443
     4    8 O      -0.563604      1.862463   4.701141
     5    7 N      -0.317605      1.359622   3.957983
     6    6 C       0.015328      1.111573   2.873099
     7    6 C       0.430872      1.080806   2.488322
     8    6 C       0.015361      1.135959   2.848680
     9    8 O      -0.520735      1.850026   4.670709
    10    7 N      -0.359806      1.365134   3.994671
    11    6 C      -0.180075      1.138142   3.041934
    12    6 C       0.424955      1.089302   2.485743
    13    6 C      -0.189862      1.150832   3.039031
    14    6 C       0.004718      1.117370   2.877912
    15    8 O      -0.495324      1.853513   4.641811
    16    6 C      -0.191321      1.160627   3.030694
    17    7 N      -0.312240      1.362897   3.949343
    18    6 C      -0.208822      1.149222   3.059600
    19    6 C      -0.091123      1.128760   2.962363
    20    6 C       0.419224      1.108228   2.472548
    21    6 C       0.387588      1.098396   2.514016
    22    7 N      -0.513497      1.452661   4.060835
    23    6 C       0.025637      1.113765   2.860598
    24    8 O      -0.553504      1.844256   4.709248
    25    8 O      -0.561287      1.858023   4.703265
    26    7 N      -0.392388      1.370388   4.022000
    27    7 N      -0.372713      1.358457   4.014257
    28    6 C      -0.194339      1.147343   3.046996
    29    6 C       0.402811      1.123268   2.473921
    30    6 C       0.390955      1.092767   2.516279
    31    8 O      -0.491334      1.851992   4.639343
    32    8 O      -0.563308      1.859151   4.704157
    33    7 N      -0.402718      1.368071   4.034647
    34    6 C      -0.122948      1.124208   2.998739
    35    6 C      -0.253548      1.156681   3.096867
    36    6 C      -0.250414      1.171330   3.079084
    37    6 C      -0.160968      1.138092   3.022875
    38    6 C      -0.194868      1.151158   3.043709
    39    6 C       0.407484      1.116797   2.475720
    40    8 O      -0.483532      1.859330   4.624203
    41    7 N      -0.448971      1.466409   3.982562
    42    1 H       0.300920      0.699080
    43    1 H       0.095181      0.904819
    44    1 H       0.270824      0.729176
    45    1 H       0.123101      0.876899
    46    1 H       0.115961      0.884039
    47    1 H       0.266855      0.733145
    48    1 H       0.089363      0.910637
    49    1 H       0.118691      0.881309
    50    1 H       0.088079      0.911921
    51    1 H       0.082793      0.917207
    52    1 H       0.135663      0.864337
    53    1 H       0.069071      0.930929
    54    1 H       0.102183      0.897817
    55    1 H       0.288430      0.711570
    56    1 H       0.125331      0.874669
    57    1 H       0.109717      0.890283
    58    1 H       0.104300      0.895700
    59    1 H       0.117135      0.882865
    60    1 H       0.208089      0.791911
    61    1 H       0.221127      0.778873
    62    1 H       0.140017      0.859983
    63    1 H       0.271934      0.728066
    64    1 H       0.254793      0.745207
    65    1 H       0.278353      0.721647
    66    1 H       0.092148      0.907852
    67    1 H       0.142529      0.857471
    68    1 H       0.253230      0.746770
    69    1 H       0.280500      0.719500
    70    1 H       0.131236      0.868764
    71    1 H       0.100830      0.899170
    72    1 H       0.084353      0.915647
    73    1 H       0.085681      0.914319
    74    1 H       0.105504      0.894496
    75    1 H       0.094103      0.905897
    76    1 H       0.090838      0.909162
    77    1 H       0.113179      0.886821
    78    1 H       0.111961      0.888039
    79    1 H       0.122724      0.877276
    80    1 H       0.124162      0.875838
    81    1 H       0.237456      0.762544
    82    1 H       0.227319      0.772681
------------------------------------------------------


Wiberg/Mayer (AO) data.
largest (>0.10) Wiberg bond orders for each atom

 ---------------------------------------------------------------------------
     #   Z sym  total        # sym  WBO       # sym  WBO       # sym  WBO
 ---------------------------------------------------------------------------
     1   7 N    3.314 --     7 C    1.207     2 C    0.995    42 O    0.839
                             9 C    0.162
     2   6 C    3.944 --     1 N    0.995    34 C    0.951    43 O    0.927
                             3 C    0.926
     3   6 C    3.856 --     4 C    1.594     5 N    1.247     2 C    0.926
     4   8 C    1.899 --     3 C    1.594     5 N    0.161
     5   7 N    3.363 --     3 C    1.247     6 C    0.969    44 O    0.884
                             4 C    0.161
     6   6 C    3.937 --    37 C    1.003     5 N    0.969    45 O    0.939
                            29 C    0.888
     7   6 C    3.887 --     9 C    1.675     1 N    1.207     8 C    0.934
     8   6 C    3.925 --    11 C    0.988    10 N    0.956     7 C    0.934
                            46 O    0.911
     9   8 C    1.955 --     7 C    1.675     1 N    0.162
    10   7 N    3.327 --    12 C    1.217     8 C    0.956    47 O    0.886
                            15 C    0.172
    11   6 C    3.967 --    13 C    1.016     8 C    0.988    48 O    0.953
                            49 O    0.949
    12   6 C    3.883 --    15 C    1.689    10 N    1.217    14 C    0.908
    13   6 C    3.969 --    11 C    1.016    16 C    0.997    51 O    0.960
                            50 O    0.959
    14   6 C    3.942 --    18 C    1.006    17 N    0.956    52 O    0.939
                            12 C    0.908
    15   8 C    1.991 --    12 C    1.689    10 N    0.172
    16   6 C    3.962 --    19 C    1.005    13 C    0.997    53 O    0.957
                            54 O    0.933
    17   7 N    3.328 --    20 C    1.234    14 C    0.956    55 O    0.883
                            24 C    0.162
    18   6 C    3.966 --    14 C    1.006    57 O    0.954    21 C    0.949
                            56 O    0.934
    19   6 C    3.949 --    22 N    1.009    16 C    1.005    59 O    0.955
                            58 O    0.950
    20   6 C    3.854 --    24 C    1.633    17 N    1.234    23 C    0.907
    21   6 C    3.887 --    25 C    1.606    26 N    1.295    18 C    0.949
    22   7 N    2.937 --    19 C    1.009    60 O    0.941    61 O    0.936
    23   6 C    3.934 --    27 N    1.012    28 C    0.953    62 O    0.917
                            20 C    0.907
    24   8 C    1.970 --    20 C    1.633    17 N    0.162
    25   8 C    1.891 --    21 C    1.606    26 N    0.169
    26   7 N    3.304 --    21 C    1.295    64 O    0.909    63 O    0.896
                            25 C    0.169
    27   7 N    3.282 --    29 C    1.151    23 C    1.012    65 O    0.853
                            31 C    0.152
    28   6 C    3.959 --    30 C    0.980    66 O    0.955    23 C    0.953
                            67 O    0.934
    29   6 C    3.858 --    31 C    1.729    27 N    1.151     6 C    0.888
    30   6 C    3.891 --    32 C    1.601    33 N    1.273    28 C    0.980
    31   8 C    2.003 --    29 C    1.729    27 N    0.152
    32   8 C    1.882 --    30 C    1.601    33 N    0.159
    33   7 N    3.279 --    30 C    1.273    68 O    0.913    69 O    0.894
                            32 C    0.159
    34   6 C    3.970 --    35 C    1.026    36 C    0.993     2 C    0.951
                            70 O    0.934
    35   6 C    3.962 --    34 C    1.026    72 O    0.971    73 O    0.969
                            71 O    0.967
    36   6 C    3.954 --    34 C    0.993    76 O    0.976    75 O    0.972
                            74 O    0.970
    37   6 C    3.960 --     6 C    1.003    38 C    0.995    78 O    0.952
                            77 O    0.947
    38   6 C    3.958 --    37 C    0.995    39 C    0.963    80 O    0.953
                            79 O    0.948
    39   6 C    3.859 --    40 C    1.761    41 N    1.100    38 C    0.963
    40   8 C    1.992 --    39 C    1.761    41 N    0.124
    41   7 N    3.102 --    39 C    1.100    81 O    0.925    82 O    0.917
                            40 C    0.124
    42   1 O    0.909 --     1 N    0.839
    43   1 O    0.991 --     2 C    0.927
    44   1 O    0.927 --     5 N    0.884
    45   1 O    0.985 --     6 C    0.939
    46   1 O    0.987 --     8 C    0.911
    47   1 O    0.929 --    10 N    0.886
    48   1 O    0.992 --    11 C    0.953
    49   1 O    0.986 --    11 C    0.949
    50   1 O    0.992 --    13 C    0.959
    51   1 O    0.993 --    13 C    0.960
    52   1 O    0.982 --    14 C    0.939
    53   1 O    0.995 --    16 C    0.957
    54   1 O    0.990 --    16 C    0.933
    55   1 O    0.917 --    17 N    0.883
    56   1 O    0.984 --    18 C    0.934
    57   1 O    0.988 --    18 C    0.954
    58   1 O    0.989 --    19 C    0.950
    59   1 O    0.986 --    19 C    0.955
    60   1 O    0.957 --    22 N    0.941
    61   1 O    0.951 --    22 N    0.936
    62   1 O    0.980 --    23 C    0.917
    63   1 O    0.926 --    26 N    0.896
    64   1 O    0.935 --    26 N    0.909
    65   1 O    0.923 --    27 N    0.853
    66   1 O    0.992 --    28 C    0.955
    67   1 O    0.980 --    28 C    0.934
    68   1 O    0.936 --    33 N    0.913
    69   1 O    0.921 --    33 N    0.894
    70   1 O    0.983 --    34 C    0.934
    71   1 O    0.990 --    35 C    0.967
    72   1 O    0.993 --    35 C    0.971
    73   1 O    0.993 --    35 C    0.969
    74   1 O    0.989 --    36 C    0.970
    75   1 O    0.991 --    36 C    0.972
    76   1 O    0.992 --    36 C    0.976
    77   1 O    0.987 --    37 C    0.947
    78   1 O    0.987 --    37 C    0.952
    79   1 O    0.985 --    38 C    0.948
    80   1 O    0.985 --    38 C    0.953
    81   1 O    0.944 --    41 N    0.925
    82   1 O    0.948 --    41 N    0.917
 ---------------------------------------------------------------------------

Topologies differ in total number of bonds
Writing topology from bond orders to xtbtopo.mol

Atomic dipole moments (in atomic units):
---------------------------------------------------------
     #    Z                 x            y            z
---------------------------------------------------------
           total    -2.180829     3.179292    -3.317419
---------------------------------------------------------
         |total|     5.086176    12.927769 Debye


           -------------------------------------------------
          | TOTAL ENERGY            -2033.912307783682 Eh   |
          | GRADIENT NORM               0.355517616845 Eh/α |
           -------------------------------------------------

------------------------------------------------------------------------
 * finished run on 2026/05/23 at 12:42:23.450     
------------------------------------------------------------------------
 total:
 * wall-time:     0 d,  0 h,  0 min, 14.626 sec
 *  cpu-time:     0 d,  0 h,  0 min, 19.511 sec
 * ratio c/w:     1.334 speedup
 SCF:
 * wall-time:     0 d,  0 h,  0 min, 14.204 sec
 *  cpu-time:     0 d,  0 h,  0 min, 19.252 sec
 * ratio c/w:     1.355 speedup

normal termination of xtb
