      -----------------------------------------------------------      
     |                   =====================                   |     
     |                           x T B                           |     
     |                   =====================                   |     
     |                         S. Grimme                         |     
     |          Mulliken Center for Theoretical Chemistry        |     
     |                    University of Bonn                     |     
      -----------------------------------------------------------      

   * xtb version 6.7.1 (edcfbbe) compiled by 'albert@albert-system' on 2024-07-22

   xtb is free software: you can redistribute it and/or modify it under
   the terms of the GNU Lesser General Public License as published by
   the Free Software Foundation, either version 3 of the License, or
   (at your option) any later version.
   
   xtb is distributed in the hope that it will be useful,
   but WITHOUT ANY WARRANTY; without even the implied warranty of
   MERCHANTABILITY or FITNESS FOR A PARTICULAR PURPOSE.  See the
   GNU Lesser General Public License for more details.
   
   Cite this work as:
   * C. Bannwarth, E. Caldeweyher, S. Ehlert, A. Hansen, P. Pracht,
     J. Seibert, S. Spicher, S. Grimme, WIREs Comput. Mol. Sci., 2020, 11,
     e01493. DOI: 10.1002/wcms.1493
   
   for GFN2-xTB:
   * C. Bannwarth, S. Ehlert and S. Grimme., J. Chem. Theory Comput., 2019,
     15, 1652-1671. DOI: 10.1021/acs.jctc.8b01176
   for GFN1-xTB:
   * S. Grimme, C. Bannwarth, P. Shushkov, J. Chem. Theory Comput., 2017,
     13, 1989-2009. DOI: 10.1021/acs.jctc.7b00118
   for GFN0-xTB:
   * P. Pracht, E. Caldeweyher, S. Ehlert, S. Grimme, ChemRxiv, 2019, preprint.
     DOI: 10.26434/chemrxiv.8326202.v1
   for GFN-FF:
   * S. Spicher and S. Grimme, Angew. Chem. Int. Ed., 2020, 59, 15665-15673.
     DOI: 10.1002/anie.202004239
   
   for ALPB and GBSA implicit solvation:
   * S. Ehlert, M. Stahn, S. Spicher, S. Grimme, J. Chem. Theory Comput.,
     2021, 17, 4250-4261. DOI: 10.1021/acs.jctc.1c00471
   
   for ddCOSMO and CPCM-X implicit solvation:
   * M. Stahn, S. Ehlert, S. Grimme, J. Phys. Chem. A,
     2023, XX, XXXX-XXXX. DOI: 10.1021/acs.jpca.3c04382
   
   for DFT-D4:
   * E. Caldeweyher, C. Bannwarth and S. Grimme, J. Chem. Phys., 2017,
     147, 034112. DOI: 10.1063/1.4993215
   * E. Caldeweyher, S. Ehlert, A. Hansen, H. Neugebauer, S. Spicher,
     C. Bannwarth and S. Grimme, J. Chem. Phys., 2019, 150, 154122.
     DOI: 10.1063/1.5090222
   * E. Caldeweyher, J.-M. Mewes, S. Ehlert and S. Grimme, Phys. Chem. Chem. Phys.
     2020, 22, 8499-8512. DOI: 10.1039/D0CP00502A
   
   for sTDA-xTB:
   * S. Grimme and C. Bannwarth, J. Chem. Phys., 2016, 145, 054103.
     DOI: 10.1063/1.4959605
   
   in the mass-spec context:
   * V. Asgeirsson, C. Bauer and S. Grimme, Chem. Sci., 2017, 8, 4879.
     DOI: 10.1039/c7sc00601b
   * J. Koopman and S. Grimme, ACS Omega 2019, 4, 12, 15120-15133.
     DOI: 10.1021/acsomega.9b02011
   
   for metadynamics refer to:
   * S. Grimme, J. Chem. Theory Comput., 2019, 155, 2847-2862
     DOI: 10.1021/acs.jctc.9b00143
   
   for SPH calculations refer to:
   * S. Spicher and S. Grimme, J. Chem. Theory Comput., 2021, 17, 1701-1714
     DOI: 10.1021/acs.jctc.0c01306
   
   for ONIOM refer to:
   * C. Plett, A. Katbashev, S. Ehlert, S. Grimme, M. Bursch,
     Phys. Chem. Chem. Phys., 2023, 25, 17860-17868. DOI: 10.1039/D3CP02178E
   
   for DIPRO refer to:
   * J. Kohn, N. Gildemeister, S. Grimme, D. Fazzi, A. Hansen,
     J. Chem. Phys., 2023, just accepted.
   
   for PTB refer to:
   * S. Grimme, M. Mueller, A. Hansen, J. Chem. Phys., 2023, 158, 124111.
     DOI: 10.1063/5.0137838
   
   with help from (in alphabetical order)
   P. Atkinson, C. Bannwarth, F. Bohle, G. Brandenburg, E. Caldeweyher
   M. Checinski, S. Dohm, S. Ehlert, S. Ehrlich, I. Gerasimov, C. Hölzer
   A. Katbashev, J. Kohn, J. Koopman, C. Lavigne, S. Lehtola, F. März, M. Müller,
   F. Musil, H. Neugebauer, J. Pisarek, C. Plett, P. Pracht, F. Pultar,
   J. Seibert, P. Shushkov, S. Spicher, M. Stahn, M. Steiner, T. Strunk,
   J. Stückrath, T. Rose, and J. Unsleber
   
 * started run on 2026/05/23 at 12:30:39.573     
   ID    Z sym.   atoms
    1    7 N      1, 5, 10, 18, 29, 37, 45, 48
    2    6 C      2, 3, 6-8, 11-14, 16, 17, 19-25, 27, 28, 30-33, 35, 36,
                  38-43, 46, 47, 49-56
    3    8 O      4, 9, 15, 26, 34, 44
    4    1 H      57-114

           -------------------------------------------------
          |                Calculation Setup                |
           -------------------------------------------------

          program call               : /home/xchen/software/xtb-6.7.1/xtb-dist/bin/xtb /home/xchen/Test/benchmark/md_sampled/10_6_0573_0/snap_0039.xyz --charge 0 --gfn 2 --norestart
          coordinate file            : /home/xchen/Test/benchmark/md_sampled/10_6_0573_0/snap_0039.xyz
          omp threads                :                    48


           -------------------------------------------------
          |                 G F N 2 - x T B                 |
           -------------------------------------------------

        Reference                      10.1021/acs.jctc.8b01176
      * Hamiltonian:
        H0-scaling (s, p, d)           1.850000    2.230000    2.230000
        zeta-weighting                 0.500000
      * Dispersion:
        s8                             2.700000
        a1                             0.520000
        a2                             5.000000
        s9                             5.000000
      * Repulsion:
        kExp                           1.500000    1.000000
        rExp                           1.000000
      * Coulomb:
        alpha                          2.000000
        third order                    shell-resolved
        anisotropic                    true
        a3                             3.000000
        a5                             4.000000
        cn-shift                       1.200000
        cn-exp                         4.000000
        max-rad                        5.000000


          ...................................................
          :                      SETUP                      :
          :.................................................:
          :  # basis functions                 282          :
          :  # atomic orbitals                 282          :
          :  # shells                          170          :
          :  # electrons                       302          :
          :  max. iterations                   250          :
          :  Hamiltonian                  GFN2-xTB          :
          :  restarted?                      false          :
          :  GBSA solvation                  false          :
          :  PC potential                    false          :
          :  electronic temp.          300.0000000     K    :
          :  accuracy                    1.0000000          :
          :  -> integral cutoff          0.2500000E+02      :
          :  -> integral neglect         0.1000000E-07      :
          :  -> SCF convergence          0.1000000E-05 Eh   :
          :  -> wf. convergence          0.1000000E-03 e    :
          :  Broyden damping             0.4000000          :
          :  net charge                          0          :
          :  unpaired electrons                  0          :
          ...................................................

 iter      E             dE          RMSdq      gap      omega  full diag
   1   -169.0438867 -0.169044E+03  0.379E+00    3.46       0.0  T
   2   -169.4116358 -0.367749E+00  0.217E+00    2.42       1.0  T
   3   -169.4330356 -0.213998E-01  0.116E+00    2.96       1.0  T
   4   -169.4386006 -0.556503E-02  0.330E-01    2.78       1.0  T
   5   -169.4489279 -0.103272E-01  0.106E-01    2.82       1.0  T
   6   -169.4493857 -0.457799E-03  0.513E-02    2.83       1.0  T
   7   -169.4494571 -0.714460E-04  0.230E-02    2.82       1.0  T
   8   -169.4494660 -0.892745E-05  0.784E-03    2.81       1.2  T
   9   -169.4494681 -0.209659E-05  0.367E-03    2.81       2.6  T
  10   -169.4494686 -0.480846E-06  0.145E-03    2.81       6.4  T
  11   -169.4494687 -0.566341E-07  0.660E-04    2.81      14.2  T
  12   -169.4494687 -0.165265E-07  0.241E-04    2.81      38.9  T

   *** convergence criteria satisfied after 12 iterations ***

         #    Occupation            Energy/Eh            Energy/eV
      -------------------------------------------------------------
         1        2.0000           -0.7339765             -19.9725
       ...           ...                  ...                  ...
       145        2.0000           -0.3954110             -10.7597
       146        2.0000           -0.3939804             -10.7208
       147        2.0000           -0.3867738             -10.5247
       148        2.0000           -0.3785148             -10.2999
       149        2.0000           -0.3708989             -10.0927
       150        2.0000           -0.3610803              -9.8255
       151        2.0000           -0.3557256              -9.6798 (HOMO)
       152                         -0.2523179              -6.8659 (LUMO)
       153                         -0.2433737              -6.6225
       154                         -0.2412355              -6.5644
       155                         -0.2342393              -6.3740
       156                         -0.2309592              -6.2847
       ...                                ...                  ...
       282                          0.7106919              19.3389
      -------------------------------------------------------------
                  HL-Gap            0.1034077 Eh            2.8139 eV
             Fermi-level           -0.3040218 Eh           -8.2729 eV

 SCC (total)                   0 d,  0 h,  0 min, 17.529 sec
 SCC setup                      ...        0 min,  0.046 sec (  0.260%)
 Dispersion                     ...        0 min,  0.191 sec (  1.089%)
 classical contributions        ...        0 min,  0.009 sec (  0.050%)
 integral evaluation            ...        0 min,  0.473 sec (  2.699%)
 iterations                     ...        0 min, 15.799 sec ( 90.128%)
 molecular gradient             ...        0 min,  0.994 sec (  5.670%)
 printout                       ...        0 min,  0.018 sec (  0.103%)

         :::::::::::::::::::::::::::::::::::::::::::::::::::::
         ::                     SUMMARY                     ::
         :::::::::::::::::::::::::::::::::::::::::::::::::::::
         :: total energy            -167.193364192738 Eh    ::
         :: gradient norm              0.348923659906 Eh/a0 ::
         :: HOMO-LUMO gap              2.813865857354 eV    ::
         ::.................................................::
         :: SCC energy              -169.441538401847 Eh    ::
         :: -> isotropic ES            0.239923199586 Eh    ::
         :: -> anisotropic ES          0.020289550153 Eh    ::
         :: -> anisotropic XC          0.079092062523 Eh    ::
         :: -> dispersion             -0.141238593911 Eh    ::
         :: repulsion energy           2.248174209109 Eh    ::
         :: add. restraining           0.000000000000 Eh    ::
         :: total charge              -0.000000000000 e     ::
         :::::::::::::::::::::::::::::::::::::::::::::::::::::

           -------------------------------------------------
          |                Property Printout                |
           -------------------------------------------------

    * Orbital Energies and Occupations

         #    Occupation            Energy/Eh            Energy/eV
      -------------------------------------------------------------
         1        2.0000           -0.7339765             -19.9725
       ...           ...                  ...                  ...
       139        2.0000           -0.4133617             -11.2481
       140        2.0000           -0.4057069             -11.0398
       141        2.0000           -0.4047215             -11.0130
       142        2.0000           -0.4030072             -10.9664
       143        2.0000           -0.4021342             -10.9426
       144        2.0000           -0.3964162             -10.7870
       145        2.0000           -0.3954110             -10.7597
       146        2.0000           -0.3939804             -10.7208
       147        2.0000           -0.3867738             -10.5247
       148        2.0000           -0.3785148             -10.2999
       149        2.0000           -0.3708989             -10.0927
       150        2.0000           -0.3610803              -9.8255
       151        2.0000           -0.3557256              -9.6798 (HOMO)
       152                         -0.2523179              -6.8659 (LUMO)
       153                         -0.2433737              -6.6225
       154                         -0.2412355              -6.5644
       155                         -0.2342393              -6.3740
       156                         -0.2309592              -6.2847
       157                         -0.2294574              -6.2439
       158                         -0.2243264              -6.1042
       159                         -0.2231219              -6.0715
       160                         -0.2141312              -5.8268
       161                         -0.1946618              -5.2970
       162                         -0.1851791              -5.0390
       ...                                ...                  ...
       282                          0.7106919              19.3389
      -------------------------------------------------------------
                  HL-Gap            0.1034077 Eh            2.8139 eV
             Fermi-level           -0.3040218 Eh           -8.2729 eV

     #   Z          covCN         q      C6AA      α(0)
     1   7 N        2.717    -0.187    25.060     7.435
     2   6 C        3.805     0.036    19.967     6.361
     3   6 C        2.754     0.276    22.328     7.738
     4   8 O        0.862    -0.447    22.650     6.381
     5   7 N        2.686    -0.196    25.257     7.464
     6   6 C        3.798     0.013    20.369     6.426
     7   6 C        2.755     0.274    22.359     7.743
     8   6 C        3.799     0.016    20.303     6.416
     9   8 O        0.859    -0.446    22.631     6.378
    10   7 N        2.682    -0.215    25.689     7.528
    11   6 C        3.820    -0.068    21.790     6.643
    12   6 C        2.729     0.265    22.521     7.769
    13   6 C        2.966     0.004    27.937     8.670
    14   6 C        3.762     0.007    20.501     6.454
    15   8 O        0.856    -0.399    21.671     6.241
    16   6 C        2.917    -0.040    28.990     8.829
    17   6 C        2.924    -0.040    29.005     8.832
    18   7 N        2.678    -0.236    26.170     7.598
    19   6 C        3.787    -0.064    21.748     6.642
    20   6 C        2.923    -0.027    28.666     8.780
    21   6 C        2.905    -0.028    28.700     8.784
    22   6 C        2.738     0.274    22.363     7.743
    23   6 C        3.846     0.000    20.546     6.448
    24   6 C        2.916    -0.023    28.573     8.766
    25   6 C        3.798     0.023    20.199     6.399
    26   8 O        0.859    -0.375    21.188     6.171
    27   6 C        3.737    -0.113    22.748     6.806
    28   6 C        3.754    -0.105    22.564     6.773
    29   7 N        2.707    -0.168    24.643     7.373
    30   6 C        3.825    -0.079    21.978     6.671
    31   6 C        2.749     0.270    22.437     7.756
    32   6 C        2.973     0.007    27.863     8.658
    33   6 C        3.786     0.013    20.371     6.429
    34   8 O        0.857    -0.413    21.949     6.281
    35   6 C        2.925    -0.042    29.055     8.840
    36   6 C        2.908    -0.041    29.013     8.832
    37   7 N        2.680    -0.220    25.811     7.545
    38   6 C        3.786    -0.057    21.613     6.622
    39   6 C        2.926    -0.028    28.709     8.787
    40   6 C        2.953    -0.036    28.903     8.818
    41   6 C        2.768     0.280    22.253     7.726
    42   6 C        3.207     0.070    25.842     8.278
    43   6 C        2.929    -0.034    28.836     8.806
    44   8 O        0.866    -0.408    21.839     6.266
    45   7 N        1.927    -0.256    27.500     7.776
    46   6 C        2.978    -0.015    28.386     8.739
    47   6 C        3.088     0.101    25.671     8.305
    48   7 N        2.829    -0.126    23.734     7.236
    49   6 C        3.847    -0.024    20.969     6.513
    50   6 C        3.745    -0.123    22.923     6.830
    51   6 C        3.771    -0.063    21.747     6.645
    52   6 C        3.719    -0.097    22.478     6.772
    53   6 C        3.851    -0.029    21.054     6.526
    54   6 C        3.744    -0.108    22.642     6.788
    55   6 C        3.800    -0.056    21.573     6.613
    56   6 C        3.741    -0.100    22.487     6.766
    57   1 H        0.859     0.188     1.170     1.695
    58   1 H        0.925     0.089     1.884     2.146
    59   1 H        0.858     0.174     1.251     1.752
    60   1 H        0.926     0.087     1.910     2.161
    61   1 H        0.928     0.068     2.103     2.267
    62   1 H        0.859     0.182     1.205     1.719
    63   1 H        0.927     0.060     2.199     2.319
    64   1 H        0.928     0.053     2.278     2.360
    65   1 H        0.927     0.092     1.855     2.130
    66   1 H        0.927     0.038     2.479     2.462
    67   1 H        0.924     0.025     2.659     2.550
    68   1 H        0.861     0.183     1.198     1.714
    69   1 H        0.915     0.026     2.640     2.542
    70   1 H        0.914     0.044     2.394     2.420
    71   1 H        0.925     0.035     2.518     2.481
    72   1 H        0.925     0.041     2.435     2.440
    73   1 H        0.923     0.026     2.645     2.543
    74   1 H        0.915     0.028     2.622     2.533
    75   1 H        0.926     0.081     1.967     2.193
    76   1 H        0.927     0.055     2.258     2.350
    77   1 H        0.927     0.046     2.372     2.408
    78   1 H        0.899     0.037     2.491     2.470
    79   1 H        0.923     0.032     2.553     2.499
    80   1 H        0.917     0.028     2.614     2.529
    81   1 H        0.922     0.043     2.409     2.427
    82   1 H        0.861     0.224     0.991     1.560
    83   1 H        0.922     0.035     2.512     2.479
    84   1 H        0.926     0.047     2.354     2.399
    85   1 H        0.925     0.059     2.216     2.328
    86   1 H        0.925     0.015     2.808     2.620
    87   1 H        0.928     0.051     2.303     2.373
    88   1 H        0.859     0.191     1.156     1.684
    89   1 H        0.925     0.082     1.963     2.191
    90   1 H        0.910     0.032     2.560     2.503
    91   1 H        0.925     0.033     2.550     2.497
    92   1 H        0.926     0.041     2.438     2.442
    93   1 H        0.929     0.055     2.264     2.353
    94   1 H        0.925     0.037     2.489     2.467
    95   1 H        0.915     0.022     2.705     2.573
    96   1 H        0.861     0.159     1.340     1.813
    97   1 H        0.914     0.031     2.580     2.512
    98   1 H        0.927     0.048     2.340     2.392
    99   1 H        0.925     0.061     2.184     2.311
   100   1 H        0.928     0.032     2.561     2.503
   101   1 H        0.917     0.065     2.145     2.291
   102   1 H        0.920     0.033     2.546     2.496
   103   1 H        0.901     0.022     2.705     2.573
   104   1 H        0.926     0.049     2.338     2.391
   105   1 H        0.926     0.044     2.397     2.421
   106   1 H        0.926     0.083     1.950     2.184
   107   1 H        0.919     0.043     2.409     2.427
   108   1 H        0.923     0.045     2.382     2.414
   109   1 H        0.922     0.028     2.622     2.533
   110   1 H        0.923     0.047     2.357     2.401
   111   1 H        0.924     0.031     2.569     2.506
   112   1 H        0.926     0.044     2.395     2.420
   113   1 H        0.921     0.030     2.591     2.517
   114   1 H        0.914     0.025     2.661     2.551

 Mol. C6AA /au·bohr⁶  :     129310.885715
 Mol. C8AA /au·bohr⁸  :    2950586.042565
 Mol. α(0) /au        :        548.652704


Wiberg/Mayer (AO) data.
largest (>0.10) Wiberg bond orders for each atom

 ---------------------------------------------------------------------------
     #   Z sym  total        # sym  WBO       # sym  WBO       # sym  WBO
 ---------------------------------------------------------------------------
     1   7 N    3.458 --     7 C    1.291     2 C    0.959    57 H    0.919
                             9 O    0.203
     2   6 C    3.961 --     3 C    1.003    49 C    0.961     1 N    0.959
                            58 H    0.925
     3   6 C    3.961 --     4 O    1.639     5 N    1.234     2 C    1.003
     4   8 O    1.977 --     3 C    1.639     5 N    0.203
     5   7 N    3.435 --     3 C    1.234     6 C    0.980    59 H    0.930
                             4 O    0.203
     6   6 C    3.959 --     5 N    0.980    41 C    0.954    60 H    0.948
                            53 C    0.942
     7   6 C    3.954 --     9 O    1.649     1 N    1.291     8 C    0.936
     8   6 C    3.970 --    11 C    0.973    10 N    0.960    61 H    0.959
                             7 C    0.936
     9   8 O    2.008 --     7 C    1.649     1 N    0.203
    10   7 N    3.381 --    12 C    1.208     8 C    0.960    62 H    0.922
                            15 O    0.196
    11   6 C    3.991 --    13 C    1.008     8 C    0.973    64 H    0.963
                            63 H    0.962
    12   6 C    3.937 --    15 O    1.749    10 N    1.208    14 C    0.912
    13   6 C    3.985 --    16 C    1.524    17 C    1.291    11 C    1.008
                            24 C    0.113
    14   6 C    3.960 --    19 C    0.987    18 N    0.964    65 H    0.957
                            12 C    0.912
    15   8 O    2.061 --    12 C    1.749    10 N    0.196
    16   6 C    3.991 --    13 C    1.524    20 C    1.345    66 H    0.965
    17   6 C    3.989 --    21 C    1.563    13 C    1.291    67 H    0.971
                            20 C    0.113
    18   7 N    3.330 --    22 C    1.175    14 C    0.964    68 H    0.921
                            26 O    0.173
    19   6 C    3.985 --    23 C    0.991    14 C    0.987    69 H    0.971
                            70 H    0.969
    20   6 C    3.992 --    24 C    1.536    16 C    1.345    71 H    0.969
                            17 C    0.113
    21   6 C    3.990 --    17 C    1.563    24 C    1.338    72 H    0.968
    22   6 C    3.937 --    26 O    1.787    18 N    1.175    25 C    0.892
    23   6 C    3.995 --    28 C    1.009    27 C    1.007    19 C    0.991
                            73 H    0.963
    24   6 C    3.989 --    20 C    1.536    21 C    1.338    74 H    0.967
                            13 C    0.113
    25   6 C    3.972 --    29 N    1.009    30 C    0.979    75 H    0.946
                            22 C    0.892
    26   8 O    2.087 --    22 C    1.787    18 N    0.173
    27   6 C    3.986 --    23 C    1.007    77 H    0.983    76 H    0.981
                            78 H    0.980
    28   6 C    3.990 --    23 C    1.009    79 H    0.984    80 H    0.982
                            81 H    0.980
    29   7 N    3.458 --    31 C    1.259    25 C    1.009    82 H    0.892
                            34 O    0.196
    30   6 C    3.991 --    32 C    0.997    25 C    0.979    84 H    0.960
                            83 H    0.958
    31   6 C    3.950 --    34 O    1.712    29 N    1.259    33 C    0.907
    32   6 C    3.982 --    36 C    1.438    35 C    1.389    30 C    0.997
                            43 C    0.102
    33   6 C    3.957 --    37 N    0.982    38 C    0.969    85 H    0.956
                            31 C    0.907
    34   8 O    2.042 --    31 C    1.712    29 N    0.196
    35   6 C    3.987 --    39 C    1.448    32 C    1.389    86 H    0.964
                            40 C    0.119
    36   6 C    3.990 --    32 C    1.438    40 C    1.409    87 H    0.972
                            39 C    0.112
    37   7 N    3.348 --    41 C    1.192    33 C    0.982    88 H    0.916
                            44 O    0.179
    38   6 C    3.988 --    42 C    1.017    33 C    0.969    90 H    0.955
                            89 H    0.951
    39   6 C    3.991 --    35 C    1.448    43 C    1.432    91 H    0.966
                            36 C    0.112
    40   6 C    3.985 --    43 C    1.454    36 C    1.409    92 H    0.969
                            35 C    0.119
    41   6 C    3.950 --    44 O    1.727    37 N    1.192     6 C    0.954
    42   6 C    3.973 --    46 C    1.585    45 N    1.237    38 C    1.017
    43   6 C    3.992 --    40 C    1.454    39 C    1.432    93 H    0.968
                            32 C    0.102
    44   8 O    2.039 --    41 C    1.727    37 N    0.179
    45   7 N    3.048 --    47 C    1.607    42 C    1.237    48 N    0.118
    46   6 C    3.941 --    42 C    1.585    48 N    1.187    94 H    0.968
                            47 C    0.116
    47   6 C    3.952 --    45 N    1.607    48 N    1.214    95 H    0.958
                            46 C    0.116
    48   7 N    3.544 --    47 C    1.214    46 C    1.187    96 H    0.946
                            45 N    0.118
    49   6 C    3.981 --    50 C    0.995    51 C    0.990    97 H    0.962
                             2 C    0.961
    50   6 C    3.993 --    49 C    0.995   100 H    0.989    98 H    0.988
                            99 H    0.979
    51   6 C    3.981 --    52 C    1.011    49 C    0.990   102 H    0.980
                           101 H    0.968
    52   6 C    3.987 --    51 C    1.011   104 H    0.987   105 H    0.987
                           103 H    0.978
    53   6 C    3.981 --    55 C    1.009    54 C    1.005   106 H    0.955
                             6 C    0.942
    54   6 C    3.990 --    53 C    1.005   107 H    0.986   108 H    0.984
                           109 H    0.979
    55   6 C    3.993 --    53 C    1.009    56 C    1.004   111 H    0.975
                           110 H    0.970
    56   6 C    3.988 --    55 C    1.004   114 H    0.988   113 H    0.987
                           112 H    0.984
    57   1 H    0.964 --     1 N    0.919
    58   1 H    0.992 --     2 C    0.925
    59   1 H    0.970 --     5 N    0.930
    60   1 H    0.992 --     6 C    0.948
    61   1 H    0.995 --     8 C    0.959
    62   1 H    0.967 --    10 N    0.922
    63   1 H    0.996 --    11 C    0.962
    64   1 H    0.997 --    11 C    0.963
    65   1 H    0.991 --    14 C    0.957
    66   1 H    0.999 --    16 C    0.965
    67   1 H    0.999 --    17 C    0.971
    68   1 H    0.966 --    18 N    0.921
    69   1 H    0.999 --    19 C    0.971
    70   1 H    0.997 --    19 C    0.969
    71   1 H    0.998 --    20 C    0.969
    72   1 H    0.998 --    21 C    0.968
    73   1 H    0.999 --    23 C    0.963
    74   1 H    0.999 --    24 C    0.967
    75   1 H    0.993 --    25 C    0.946
    76   1 H    0.997 --    27 C    0.981
    77   1 H    0.998 --    27 C    0.983
    78   1 H    0.999 --    27 C    0.980
    79   1 H    0.998 --    28 C    0.984
    80   1 H    0.999 --    28 C    0.982
    81   1 H    0.998 --    28 C    0.980
    82   1 H    0.950 --    29 N    0.892
    83   1 H    0.998 --    30 C    0.958
    84   1 H    0.997 --    30 C    0.960
    85   1 H    0.996 --    33 C    0.956
    86   1 H    1.000 --    35 C    0.964
    87   1 H    0.997 --    36 C    0.972
    88   1 H    0.963 --    37 N    0.916
    89   1 H    0.993 --    38 C    0.951
    90   1 H    0.999 --    38 C    0.955
    91   1 H    0.999 --    39 C    0.966
    92   1 H    0.998 --    40 C    0.969
    93   1 H    0.997 --    43 C    0.968
    94   1 H    0.999 --    46 C    0.968
    95   1 H    0.999 --    47 C    0.958
    96   1 H    0.975 --    48 N    0.946
    97   1 H    0.999 --    49 C    0.962
    98   1 H    0.998 --    50 C    0.988
    99   1 H    0.996 --    50 C    0.979
   100   1 H    0.999 --    50 C    0.989
   101   1 H    0.996 --    51 C    0.968
   102   1 H    0.999 --    51 C    0.980
   103   1 H    0.999 --    52 C    0.978
   104   1 H    0.997 --    52 C    0.987
   105   1 H    0.998 --    52 C    0.987
   106   1 H    0.993 --    53 C    0.955
   107   1 H    0.998 --    54 C    0.986
   108   1 H    0.997 --    54 C    0.984
   109   1 H    0.999 --    54 C    0.979
   110   1 H    0.998 --    55 C    0.970
   111   1 H    0.999 --    55 C    0.975
   112   1 H    0.998 --    56 C    0.984
   113   1 H    0.999 --    56 C    0.987
   114   1 H    0.999 --    56 C    0.988
 ---------------------------------------------------------------------------

Topologies differ in total number of bonds
Writing topology from bond orders to xtbtopo.mol

molecular dipole:
                 x           y           z       tot (Debye)
 q only:       -2.085       1.113      -3.414
   full:       -2.381       1.301      -3.238      10.739
molecular quadrupole (traceless):
                xx          xy          yy          xz          yz          zz
 q only:        1.716      14.006      20.424       5.421      -1.367     -22.140
  q+dip:        6.982       9.478      20.064      19.729      -7.194     -27.046
   full:        3.570      10.243      22.788      17.853      -6.292     -26.357


           -------------------------------------------------
          | TOTAL ENERGY             -167.193364192738 Eh   |
          | GRADIENT NORM               0.348923659906 Eh/α |
          | HOMO-LUMO GAP               2.813865857354 eV   |
           -------------------------------------------------

------------------------------------------------------------------------
 * finished run on 2026/05/23 at 12:30:58.216     
------------------------------------------------------------------------
 total:
 * wall-time:     0 d,  0 h,  0 min, 18.642 sec
 *  cpu-time:     0 d,  0 h,  0 min, 24.303 sec
 * ratio c/w:     1.304 speedup
 SCF:
 * wall-time:     0 d,  0 h,  0 min, 17.531 sec
 *  cpu-time:     0 d,  0 h,  0 min, 23.170 sec
 * ratio c/w:     1.322 speedup

normal termination of xtb
