117
pH=7.04 total_charge=-2 partial_charge_sum=-2.000000 method=gasteiger energy=-581.09611100
N   2.79311653 -2.58641980  0.45923314
C   3.35310152 -1.37991859  0.91394838
C   3.18279621 -0.24738923 -0.05734053
O   3.98706448  0.01514357 -0.92591925
N   2.14570477  0.60801655  0.09973875
C   2.02887559  1.61364296 -0.89039615
C   1.87899961 -2.80609383 -0.49759864
C   1.17863645 -4.07812495 -0.52345593
O   1.71839582 -1.84857184 -1.28174882
N  -0.07760029 -3.89925007  0.14860488
C   0.88871948 -4.82105063 -1.81095938
C  -0.40934871 -4.07492705  1.37602709
C   2.16018160 -5.17353522 -2.65372944
C  -1.86782864 -3.53543362  1.69725036
O   0.33417150 -4.35113039  2.36167266
C   1.83129080 -5.84911690 -4.07243071
N  -2.19349917 -2.57106309  0.69656721
C  -3.00975523 -4.55826720  1.80438764
O   0.60829776 -5.93380915 -4.29565183
O   2.82115651 -6.40999556 -4.65159189
C  -1.64718925 -1.42003500  0.48730067
C  -4.32743517 -3.88122544  2.16495117
C  -2.57506204 -0.51453574 -0.45119454
O  -0.55141266 -1.06399734  0.94391517
O  -5.04117836 -4.45861531  2.91326754
O  -4.48324795 -2.76881115  1.52574510
N  -2.41588374  0.86623802  0.07869487
C  -2.26511742 -0.74318864 -2.03229053
C  -3.22492877  1.92661343 -0.17103408
C  -2.56977370 -2.10700701 -2.55864433
C  -2.75549048  3.25320073  0.63553474
O  -4.22181471  1.98204622 -0.83208959
C  -2.11847206 -2.37425993 -4.01712739
N  -1.55238946  3.69108622 -0.17983296
C  -3.85530574  4.39823244  0.74767928
C  -2.76217801 -3.56420523 -4.62558194
C  -0.77902046  4.66954355  0.39020280
C  -4.54796789  4.59798555  2.06015213
N  -2.45031696 -4.75612952 -3.90773095
C   0.44058778  5.02127249 -0.32695709
O  -1.27324097  5.32986059  1.23673642
S  -5.67405547  3.19301201  2.63566506
N   0.99550769  3.86497115 -1.04285481
C   0.21667025  6.14281509 -1.36698967
C  -4.35756731  2.18730495  3.27594220
C   1.35213599  2.82831988 -0.24276905
C   1.55274215  6.57518444 -1.98405701
C  -0.88982043  5.80029714 -2.35856741
O   1.02979505  2.83689027  0.94828128
C  -1.94693491  6.86344445 -2.75861265
C   4.89259036 -1.61672881  1.12216443
C   5.71446215 -0.47185236  1.72308263
C   6.56815705 -1.01530228  2.86414317
N   5.83474651 -1.10407956  4.16279000
C   6.40263720 -1.56543816  5.31085293
N   7.65449046 -1.78697305  5.54464120
N   5.51923954 -1.59606610  6.43216325
C   1.50324637  1.12969155 -2.25350894
H   2.86405371 -3.32418678  1.12286726
H   2.99822413 -1.06664456  1.90687580
H   1.31543423  0.19106928  0.54247056
H   2.94480057  2.04197829 -0.94646278
H   1.76529219 -4.81670733  0.05473642
H  -0.83502492 -3.47554259 -0.38566803
H   0.17225803 -4.22883709 -2.36851963
H   0.42132446 -5.64842053 -1.46142614
H   3.03798403 -4.42207440 -2.63083939
H   2.62679533 -6.02891772 -2.04099290
H  -1.76590331 -3.04209934  2.66211723
H  -3.17014756 -2.62368087  0.47400833
H  -3.20885644 -5.12106739  0.86778851
H  -2.87926143 -5.33889982  2.51808411
H  -3.70710874 -0.79609618 -0.33486906
H  -1.61151519  0.94578429  0.62028687
H  -2.90842791  0.01014329 -2.58208694
H  -1.22124943 -0.41942371 -2.25263129
H  -2.12050417 -2.86170234 -1.90525313
H  -3.63651657 -2.35920750 -2.33848628
H  -2.39494995  2.83778417  1.57497995
H  -1.06755560 -2.67253522 -4.15500076
H  -2.15745863 -1.44786474 -4.67253783
H  -1.14741187  3.02014006 -0.84828070
H  -3.30239379  5.38464453  0.56132104
H  -4.56802880  4.32073967 -0.16130985
H  -2.36903905 -3.65344381 -5.65653508
H  -3.76747783 -3.40121786 -4.76753036
H  -3.89276617  4.75768327  3.01121748
H  -5.35952476  5.40781747  2.10942185
H  -1.46796891 -4.88280639 -3.78384440
H  -2.79087774 -5.60762640 -4.26062355
H   1.22024714  5.55200940  0.33474256
H   1.07474753  3.73049982 -2.00654091
H  -0.20436994  7.02426491 -0.80893189
H  -4.88347508  1.54924670  4.06215071
H  -4.01862953  1.43928122  2.55818710
H  -3.54148903  2.80400677  3.55780220
H   2.06311359  6.98360543 -1.07076451
H   1.39762558  7.31143606 -2.89540470
H   2.17841542  5.76844269 -2.40155104
H  -0.32839691  5.39750787 -3.23000963
H  -1.57727502  4.97842214 -2.01561946
H  -1.51870041  7.81275754 -3.18010410
H  -2.67835983  6.16571337 -3.29223013
H  -2.50387780  7.27984602 -1.93227895
H   5.18571454 -1.82152122  0.11036479
H   5.05655922 -2.53129934  1.64743229
H   4.87845785  0.10517255  1.92482596
H   6.37099701  0.13949270  1.04771551
H   6.98372593 -2.01596534  2.60228514
H   7.29682456 -0.26178208  3.10637032
H   4.84163782 -0.79180658  4.27723000
H   8.12472086 -1.66616720  4.67190595
H   4.67972977 -2.09979221  6.19870738
H   6.08851331 -2.21732797  7.01214096
H   1.84226834  0.12475359 -2.44455948
H   1.89887116  1.87083563 -2.93300178
H   0.41480516  1.00888222 -2.30708186
