117
pH=7.04 total_charge=-2 partial_charge_sum=-2.000000 method=gasteiger energy=-581.84611100
N   2.40905251 -2.23393768  0.74347323
C   3.25212896 -1.06553674  1.16361758
C   3.31115963  0.12335601  0.21356380
O   4.37579681  0.52467388 -0.24657096
N   2.15630100  0.78849835  0.03920219
C   2.18931887  1.84840699 -0.93054827
C   2.14159615 -2.68783340 -0.45747687
C   1.12340202 -3.87664724 -0.48512970
O   2.71467104 -2.30868435 -1.51351179
N  -0.09257945 -3.58152686  0.22040293
C   0.78062634 -4.47039084 -1.94461001
C  -0.45351835 -3.56958928  1.54105882
C   1.94980136 -5.40464224 -2.30799835
C  -1.89471848 -3.24820721  1.83266459
O   0.34435120 -3.83486508  2.45661024
C   1.73443399 -6.29474114 -3.49810529
N  -2.42417243 -2.17035754  1.04071032
C  -2.78976055 -4.51471106  1.47287271
O   0.79812237 -5.96719755 -4.28892846
O   2.50906756 -7.27919466 -3.68519655
C  -1.89426176 -1.00798679  0.81300451
C  -4.29800496 -4.20178947  2.16527090
C  -2.72228267 -0.10879374 -0.13607465
O  -0.73982212 -0.68876299  1.09243457
O  -4.79955079 -5.13961751  2.84208547
O  -4.82608306 -3.17680721  1.82296508
N  -2.52627867  1.30533486  0.28862371
C  -2.24646500 -0.21145882 -1.68715852
C  -3.31686136  2.40026543 -0.00665247
C  -2.69498682 -1.36605588 -2.61778732
C  -2.68401912  3.65393485  0.61427156
O  -4.15821890  2.54872007 -0.87502618
C  -1.65052300 -1.73595154 -3.75736554
N  -1.67087876  4.00306595 -0.38638606
C  -3.67898891  4.74667091  1.00055651
C  -2.02015934 -2.86864319 -4.73361085
C  -0.89619450  5.12829966 -0.46522251
C  -4.17813741  4.69595714  2.43077711
N  -1.65163315 -4.20091936 -4.35939204
C   0.23977280  5.07691848 -1.52510967
O  -0.98737259  6.23698338 -0.00899579
S  -5.12257491  3.35202517  3.13874600
N   0.76468416  3.77199990 -1.64275596
C  -0.39107288  5.57189369 -2.83453971
C  -3.83723740  2.42139861  4.01662932
C   1.42041794  3.15187256 -0.50514502
C   0.62838305  6.24588500 -3.87483051
C  -1.26884828  4.54898735 -3.60354987
O   1.31899149  3.52302313  0.64535048
C  -2.15996803  5.23282654 -4.59427195
C   4.55622938 -1.62491372  1.71254249
C   5.38772267 -0.74402589  2.71861442
C   6.13031893 -1.49943426  3.86868428
N   5.28897480 -2.41236129  4.68972249
C   6.06231152 -3.16068500  5.67245287
N   7.25935939 -3.28924524  5.75697111
N   5.06921262 -3.79579356  6.53966345
C   1.89942506  1.33433520 -2.32417134
H   1.92489331 -2.69782408  1.47229941
H   2.80445861 -0.73680397  2.09713101
H   1.30876547  0.48396185  0.45295160
H   3.21835540  2.08254728 -1.03594430
H   1.64502300 -4.73101429 -0.00527771
H  -0.70435180 -3.27023260 -0.51603244
H   0.61508137 -3.69842128 -2.70045273
H  -0.18421190 -5.10023091 -1.74666089
H   2.75464040 -4.70671847 -2.42978264
H   2.04405645 -6.00745478 -1.42812668
H  -1.79979635 -2.92659633  2.87812698
H  -3.44213757 -2.28248171  1.03757232
H  -2.76226304 -4.76098602  0.42872586
H  -2.30157241 -5.43979022  1.87896058
H  -3.79541434 -0.44318797 -0.02142415
H  -1.71096526  1.44411139  0.92643908
H  -2.56310277  0.71199188 -2.11238991
H  -1.12694845 -0.20058811 -1.61790981
H  -2.79746010 -2.29388553 -2.14255413
H  -3.65453170 -1.14064829 -3.04066843
H  -2.17489817  3.31770596  1.53738218
H  -0.91538217 -2.08382097 -3.06705161
H  -1.21438906 -0.85497196 -4.24558375
H  -1.30523372  3.19664818 -0.86386544
H  -3.17085743  5.67399432  0.77975047
H  -4.54665316  4.60176043  0.44856570
H  -1.52828589 -2.73002238 -5.70578936
H  -3.10614280 -2.82917458 -4.84341231
H  -3.30448310  4.72304193  3.12085717
H  -4.73445797  5.61849803  2.63690004
H  -0.66267259 -4.56514331 -4.58744244
H  -1.84011426 -4.44429868 -3.34523510
H   0.92103745  5.83081752 -1.11427605
H   1.14467279  3.57445756 -2.53182298
H  -1.09491865  6.28130742 -2.45763311
H  -4.33717997  1.56391332  4.58491467
H  -3.21427825  2.06714418  3.22289024
H  -3.28439567  3.04031001  4.73912419
H   0.69787768  5.58097343 -4.69149538
H   1.61172370  6.16481940 -3.57299416
H   0.30024530  7.24024901 -4.11584492
H  -0.63757684  3.72353300 -4.09514473
H  -1.85519695  3.93609671 -2.94547799
H  -1.52840669  5.74509301 -5.32904175
H  -2.87315121  4.51139999 -4.96220458
H  -2.68323770  6.13623301 -4.03591080
H   5.17274051 -2.10104102  0.99679018
H   4.10517837 -2.46397146  2.31414485
H   4.64823775 -0.06052413  3.17345590
H   6.13488507 -0.17726469  2.30972827
H   6.85130164 -2.01485550  3.30356830
H   6.67524372 -0.73822577  4.56956585
H   4.61666421 -1.81919754  5.19258450
H   7.80081688 -2.77064752  5.02020580
H   4.24377552 -4.13512435  6.01696456
H   5.56287173 -4.63877080  6.83158723
H   2.37429544  0.43674393 -2.54250204
H   2.33210041  2.25955448 -2.99763916
H   0.82865266  1.33949019 -2.45891489
