117
pH=7.04 total_charge=-2 partial_charge_sum=-2.000000 method=gasteiger energy=-581.47892350
N   2.51914777 -2.63726853  0.42358823
C   3.11868664 -1.38602803  0.78273703
C   3.20897276 -0.48270902 -0.38234173
O   3.83310242 -0.65360837 -1.40905505
N   2.50861047  0.64045654 -0.14517144
C   2.33101382  1.73620450 -1.15492812
C   1.49859146 -2.76284769 -0.55051691
C   0.92278082 -4.21851003 -0.50186995
O   1.14703685 -1.97733214 -1.37285444
N  -0.36882837 -4.01322270  0.02399816
C   0.94172031 -4.99514856 -1.90983824
C  -0.50606665 -3.98933102  1.37909752
C   1.95640873 -4.39753126 -2.87816022
C  -1.82631376 -3.51266574  1.89128537
O   0.33832497 -4.26362777  2.19971693
C   1.81959927 -5.27993340 -4.17883229
N  -2.52308464 -2.44036051  1.13040087
C  -2.72632807 -4.67530664  2.17332786
O   1.11959342 -4.79863672 -5.13881017
O   2.34647484 -6.42080276 -4.03103655
C  -1.83020984 -1.34973639  0.86060887
C  -4.21255260 -4.36072276  2.42099282
C  -2.42932663 -0.39981111 -0.30629970
O  -0.71668846 -1.07823027  1.28370821
O  -4.95631249 -5.07557810  3.11455168
O  -4.71172621 -3.37217279  1.79966981
N  -2.18692940  0.95010870  0.10514941
C  -1.90899906 -0.88613885 -1.62785759
C  -2.94896027  1.96956504 -0.33920281
C  -2.76234436 -1.98554730 -2.21475579
C  -2.71464414  3.34700067  0.36594044
O  -3.75258477  1.83232152 -1.26573039
C  -2.42619056 -2.34109987 -3.63460189
N  -1.60441921  3.98274107 -0.33469905
C  -3.93881253  4.25536392  0.47196390
C  -2.91990602 -3.76976679 -4.01811888
C  -0.62171597  4.54106829  0.43733874
C  -4.41144137  4.41824682  1.95688394
N  -2.38206136 -4.77114723 -3.10146080
C   0.61739427  5.04991660 -0.30290653
O  -0.80673034  4.67685346  1.67309866
S  -5.54273756  3.08521275  2.56452939
N   1.18625833  3.97017828 -1.06939487
C   0.24255438  6.25757186 -1.24046010
C  -4.21013130  2.00476976  3.02892449
C   1.56913174  2.90640454 -0.38496608
C   1.48630027  7.08041865 -1.60807126
C  -0.64385837  5.86804218 -2.58834513
O   1.24220162  2.87711748  0.77584229
C  -2.09116209  6.28906470 -2.47600205
C   4.57666763 -1.69387561  1.20841338
C   5.35705617 -0.34595538  1.64510480
C   6.44629585 -0.50181824  2.74679530
N   5.76030877 -1.18139744  3.87029776
C   6.35476329 -1.36467797  5.06591041
N   7.53279826 -1.03821061  5.38751490
N   5.55264661 -2.13206286  5.93984384
C   1.66552991  1.36858690 -2.40142642
H   2.14502670 -3.12734417  1.27316961
H   2.56308630 -0.85727405  1.65005250
H   2.11961583  0.78871736  0.77218342
H   3.30648938  2.04683968 -1.44584465
H   1.50614924 -4.81987015  0.16313338
H  -1.14145918 -3.66032021 -0.45579112
H  -0.00805344 -5.14646664 -2.36722195
H   1.19616176 -6.01688414 -1.57331566
H   1.70804036 -3.46387992 -3.03945697
H   3.09517884 -4.58603744 -2.63584238
H  -1.53055666 -3.12127744  2.91568764
H  -3.79102491 -2.77050810  1.32122315
H  -2.73514799 -5.42424558  1.38387878
H  -2.33107090 -5.13863583  3.06248311
H  -3.57992017 -0.66316168 -0.38277253
H  -1.41003908  1.15095763  0.68410581
H  -1.59214334  0.00686210 -2.19436094
H  -0.95850096 -1.46653471 -1.43658632
H  -2.63033938 -2.78969067 -1.52587583
H  -3.84787300 -1.72333026 -2.32093924
H  -2.38115200  3.20617642  1.42766544
H  -1.39371370 -2.41079081 -3.70001091
H  -2.89784638 -1.66369367 -4.31081653
H  -1.49757574  3.71564588 -1.29607177
H  -3.52693852  5.09433430 -0.06946830
H  -4.78460460  3.79820752 -0.11655228
H  -2.61569415 -3.91303055 -5.09430183
H  -4.02257476 -3.88998762 -3.92455839
H  -3.48518595  4.52586746  2.60758691
H  -4.97976933  5.28699973  2.02888834
H  -1.53942780 -5.21276355 -3.40638387
H  -3.06508325 -5.46396747 -2.88278150
H   1.33404657  5.28934753  0.50948091
H   1.67803290  4.31382258 -1.92784349
H  -0.47218349  6.89221338 -0.64411030
H  -4.44865553  1.21370619  3.72649577
H  -3.78361198  1.62272956  2.03861797
H  -3.48482155  2.68971060  3.55703576
H   1.74032818  7.64998298 -0.64268859
H   1.15397782  7.88217727 -2.40907771
H   2.31594169  6.45591705 -2.13919381
H  -0.13885366  6.45419878 -3.35250995
H  -0.48429677  4.79182020 -2.74789609
H  -2.07802729  7.35895304 -2.28593195
H  -2.63522670  6.33011485 -3.41037344
H  -2.75025178  5.75252784 -1.86174330
H   4.97605994 -1.95727092  0.24731573
H   4.61204379 -2.54005228  1.92713079
H   4.65434355  0.41640123  2.00871109
H   5.69980646 -0.00964270  0.67396670
H   7.41171932 -1.04979533  2.55186202
H   6.85634475  0.50270057  2.95816309
H   4.84193784 -1.37016198  3.65473901
H   8.13210641 -0.55878660  4.70644073
H   4.70944854 -1.70345211  6.23994086
H   5.99475549 -2.46099255  6.77300940
H   2.23924674  0.63654896 -2.91078828
H   1.69444951  2.18585881 -3.11239519
H   0.71030565  1.06282919 -2.21422885
