117
pH=7.04 total_charge=-2 partial_charge_sum=-2.000000 method=gasteiger energy=-580.85392350
N   2.38519808 -2.22263730  0.63681220
C   3.20428980 -1.10137264  1.24258886
C   3.41665702  0.01837404  0.21422400
O   4.50978223  0.28288031 -0.20374550
N   2.24845434  0.68998284 -0.08236872
C   2.22970064  1.83431807 -1.05766110
C   2.12610158 -2.72197011 -0.61014397
C   1.10281232 -3.88185217 -0.41353929
O   2.59714389 -2.37711628 -1.65797445
N  -0.14968050 -3.49386915  0.23637301
C   0.80318159 -4.38691388 -1.77746532
C  -0.45355893 -3.59088255  1.55783264
C   1.95819444 -5.30321513 -2.41192574
C  -1.92002565 -3.26433257  1.83283988
O   0.46898382 -3.75659754  2.47667568
C   1.75664438 -6.24346756 -3.59721882
N  -2.44555420 -2.19559457  0.95194883
C  -2.92364767 -4.46316951  1.66603142
O   0.77314937 -5.89821750 -4.34511254
O   2.59978519 -7.16389142 -3.74529735
C  -1.82602667 -1.02792613  0.72126263
C  -4.33839279 -4.26974005  2.06980304
C  -2.75637831 -0.12029115 -0.26559613
O  -0.76471775 -0.55814177  1.21417278
O  -4.76900368 -5.21834201  2.67276486
O  -4.75272795 -3.16855806  1.71896640
N  -2.56164919  1.26492046  0.24099987
C  -2.34538897 -0.19028393 -1.77606691
C  -3.22189074  2.40271297 -0.04958101
C  -2.80380248 -1.49260547 -2.50117977
C  -2.55682559  3.67860642  0.65770752
O  -4.21015046  2.44479347 -0.77981599
C  -1.71930344 -1.80581852 -3.62643093
N  -1.58294785  4.06987369 -0.28833320
C  -3.63762937  4.68645312  1.10584467
C  -2.01438700 -2.91262057 -4.68382054
C  -0.81314708  5.12817821 -0.34730205
C  -4.06717797  4.81663524  2.47585660
N  -1.80802801 -4.25215549 -4.20136182
C   0.27338001  5.07847459 -1.44434503
O  -1.10522524  6.17026440  0.26786932
S  -5.16415160  3.34916008  3.12744046
N   0.71315623  3.65763102 -1.65172993
C  -0.37689105  5.67939903 -2.67061310
C  -3.82412941  2.42584859  3.94665811
C   1.38864139  3.01896643 -0.61775519
C   0.62951441  6.21188246 -3.72652590
C  -1.31586429  4.72234637 -3.34311582
O   1.42860366  3.52460806  0.49660314
C  -2.12353339  5.10479663 -4.53974797
C   4.46707917 -1.67705715  1.82327977
C   5.08372472 -0.70583288  2.79216951
C   6.14810559 -1.42852106  3.67629490
N   5.41907257 -2.20354927  4.68793832
C   6.10615318 -3.08729551  5.59517556
N   7.38568655 -3.29159535  5.69650916
N   5.26895178 -3.71894556  6.47079854
C   1.79592373  1.33766830 -2.49787870
H   1.86246435 -2.71287294  1.38178259
H   2.59562127 -0.73996329  2.20802883
H   1.38068134  0.20814892 -0.05479605
H   3.18879759  2.22334124 -1.08707459
H   1.50938843 -4.76522718  0.15838473
H  -0.86461507 -3.66296057 -0.54211725
H   0.56726341 -3.53119862 -2.43005279
H  -0.14315452 -4.92875772 -1.53855550
H   2.57368685 -4.37025860 -2.81764912
H   2.53007354 -5.71795573 -1.66397232
H  -1.80108178 -2.79641971  2.77374471
H  -3.50257558 -2.28758248  1.02458161
H  -2.90167385 -4.89682276  0.66957941
H  -2.60607053 -5.25308280  2.25861948
H  -3.75718095 -0.54202548 -0.06586075
H  -1.81734802  1.36576989  0.87809976
H  -2.67054663  0.74734803 -2.29325077
H  -1.17705065 -0.22101207 -1.72469476
H  -3.10702030 -2.34591226 -1.90013652
H  -3.69423149 -1.15314330 -3.10055281
H  -2.10505166  3.27232113  1.54178421
H  -0.81474007 -1.73995385 -3.14220760
H  -1.76625452 -0.80778151 -4.23176608
H  -1.28028548  3.34338115 -0.86869655
H  -3.15203254  5.66313607  0.94695836
H  -4.62001256  4.60533925  0.54655894
H  -1.29644591 -2.81050743 -5.47902477
H  -2.96345491 -2.72934101 -5.11164647
H  -3.24572159  4.93132413  3.14334557
H  -4.59378129  5.79000682  2.54722110
H  -0.92181092 -4.61375149 -4.18694519
H  -2.16954061 -4.43336557 -3.30083448
H   1.11237572  5.75497792 -1.22792665
H   0.80293898  3.34845074 -2.62398673
H  -0.99154263  6.48474991 -2.29487094
H  -4.24033903  1.51903195  4.34226177
H  -3.09762884  2.31746045  3.16532269
H  -3.43917710  2.92169924  4.81150444
H   0.56704895  5.55395952 -4.56367146
H   1.65200383  6.04690582 -3.53234044
H   0.48180423  7.28353981 -3.87216396
H  -0.71697225  3.79623383 -3.61249393
H  -2.06566233  4.28104394 -2.62093774
H  -1.53360281  5.39501440 -5.42586443
H  -2.82055688  4.28690809 -4.75298210
H  -2.76618855  6.10407392 -4.29510285
H   5.12905698 -1.75308465  0.92149389
H   4.27730400 -2.67199432  2.13267230
H   4.28217843 -0.33040129  3.49370449
H   5.60001850  0.17285601  2.27885035
H   6.75354961 -2.00220089  2.86142234
H   6.78838766 -0.58463531  4.11796922
H   4.43180086 -2.05487244  4.66264656
H   7.85132340 -2.64754346  5.12059630
H   4.29142669 -3.83104006  6.30537531
H   5.74277131 -4.23015373  7.13732627
H   2.11806357  0.22877252 -2.59874631
H   2.38487551  1.81928289 -3.24268120
H   0.78332028  1.56869086 -2.64129348
