117
pH=7.04 total_charge=-2 partial_charge_sum=-2.000000 method=gasteiger energy=-581.31486100
N   2.77175274 -2.67294144  0.37792908
C   3.42196745 -1.49411649  0.84115655
C   3.28622861 -0.33080714 -0.25089387
O   4.01084689 -0.34022226 -1.24388342
N   2.32001609  0.64805595  0.04524294
C   2.12084140  1.73264898 -0.91664269
C   1.67341032 -2.83012077 -0.50235664
C   1.13802436 -4.26433858 -0.53698874
O   1.31552054 -2.02478422 -1.33772701
N  -0.16313800 -4.21296081  0.18693276
C   0.91832963 -4.51939913 -2.03383529
C  -0.33196571 -4.19398207  1.52578010
C   2.20273264 -4.73365685 -2.80631480
C  -1.65142200 -3.51567294  1.94880904
O   0.43481927 -4.50756039  2.42781002
C   1.91586456 -5.62845654 -4.07414131
N  -2.10697096 -2.39914966  0.97141734
C  -2.79617687 -4.47792388  1.92888760
O   0.74668879 -5.38028045 -4.52868160
O   2.70431905 -6.55414130 -4.40554021
C  -1.67075544 -1.24576450  0.51908639
C  -4.25712106 -3.93429165  2.17674333
C  -2.56529804 -0.41063196 -0.44925460
O  -0.54834642 -0.77288052  0.79373995
O  -4.92150120 -4.67179848  2.90929341
O  -4.65377894 -2.93926645  1.47377950
N  -2.32417802  0.93636300  0.05307602
C  -2.42387100 -0.66218978 -1.91714434
C  -3.05268420  1.92610333 -0.23735406
C  -2.87156537 -2.07417577 -2.52518866
C  -2.74920061  3.19486641  0.58043892
O  -3.85668194  1.91568621 -1.14970701
C  -2.23167748 -2.40159732 -3.82410229
N  -1.64062031  3.75132867 -0.08540339
C  -3.95791371  4.11216428  0.48230552
C  -2.59779418 -3.81283163 -4.43563073
C  -0.79258977  4.68853831  0.47775579
C  -4.59804072  4.49387376  1.78685465
N  -2.21982222 -4.96475310 -3.66541193
C   0.41724950  5.11912529 -0.28306499
O  -1.08952038  5.37779300  1.44607392
S  -5.58882556  3.24091014  2.61007124
N   0.96645145  3.98295951 -0.95189994
C   0.13960224  6.28991440 -1.25317812
C  -4.42227669  2.12063214  3.25696473
C   1.32663929  2.85264432 -0.21794107
C   1.32847200  6.90152244 -1.82976482
C  -0.88154543  5.92809128 -2.45502069
O   0.81427166  2.75726910  0.91171403
C  -2.09755254  6.83351446 -2.35946315
C   4.84969683 -1.85611633  1.14137656
C   5.74799734 -0.64548375  1.63616493
C   6.53886583 -1.09517228  2.90025254
N   5.67757378 -1.23423819  4.09835160
C   6.30247183 -1.53631083  5.31054436
N   7.56256419 -1.48005774  5.52876598
N   5.40719264 -1.89303716  6.28261156
C   1.52855088  1.25969278 -2.22667548
H   3.02403926 -3.39170439  0.96802733
H   3.03070963 -0.96476718  1.81502256
H   1.58672122  0.30794893  0.65367658
H   3.05849853  2.02043254 -1.13677510
H   1.69077963 -5.11165507 -0.04335352
H  -0.76454797 -3.55824118 -0.30508758
H   0.36057597 -3.67436751 -2.46063647
H   0.35108371 -5.38189476 -2.22290968
H   2.92086404 -4.00071244 -3.06398458
H   2.85052756 -5.49499951 -2.21038719
H  -1.40095013 -3.05173362  2.92455505
H  -3.07689669 -2.71336842  0.76176212
H  -2.67858352 -4.97232029  0.94218042
H  -2.63405481 -5.30836924  2.64603088
H  -3.66972768 -0.72805820 -0.05859868
H  -1.66133015  0.88408296  0.77559365
H  -2.89068859  0.19607805 -2.46032860
H  -1.37192004 -0.65911697 -2.16594683
H  -2.59634893 -2.80738622 -1.77833219
H  -4.02106801 -2.17752702 -2.52457914
H  -2.37046452  2.98161928  1.58748154
H  -1.15402195 -2.26638491 -3.61000283
H  -2.39350592 -1.60873279 -4.58203685
H  -1.18474609  3.18161494 -0.77352607
H  -3.53608847  5.12481129  0.12577152
H  -4.63362094  3.86937327 -0.32929218
H  -2.08733776 -3.77093801 -5.39604041
H  -3.59688357 -3.88909796 -4.76617347
H  -3.73916948  4.89204943  2.50486215
H  -5.16031093  5.43755156  1.54655835
H  -1.33014593 -5.27781021 -4.05137877
H  -3.03540841 -5.65442642 -3.83423880
H   1.16473262  5.45533047  0.55238562
H   1.40106156  4.17966020 -1.85154750
H  -0.43442560  7.02155462 -0.54290841
H  -4.92979705  1.18454063  3.63950523
H  -3.71364661  1.74581977  2.51850992
H  -3.82561075  2.65619495  3.90972724
H   2.18768867  6.97179280 -1.04347173
H   0.95122928  7.93697187 -2.31794249
H   1.74611691  6.45370688 -2.76298535
H  -0.36393139  6.13736562 -3.37865095
H  -1.11673605  4.89576625 -2.37356268
H  -1.61539116  7.80688937 -2.05805014
H  -2.68716646  6.73192703 -3.25276462
H  -2.75512031  6.79938679 -1.46787703
H   5.28760377 -2.43850787  0.29618079
H   4.94330387 -2.60299113  1.95950183
H   5.10414647  0.18460649  1.80333821
H   6.44115564 -0.32376252  0.77863715
H   6.91898430 -2.11899028  2.72171681
H   7.30455431 -0.34687658  3.11063283
H   4.81226094 -1.73343191  3.88111705
H   8.01805219 -1.48371055  4.63893110
H   4.71903588 -1.11015218  6.46051192
H   6.01545789 -1.95674289  7.13142401
H   1.85651456  0.21545037 -2.44952523
H   1.77096012  1.96075829 -3.02515215
H   0.49760651  1.07446627 -2.25917964
