117
pH=7.04 total_charge=-2 partial_charge_sum=-2.000000 method=gasteiger energy=-581.58048600
N   2.49326601 -2.68254715  0.52807761
C   3.19184874 -1.43515887  0.80992032
C   3.10616815 -0.42608432 -0.42947891
O   3.85687326 -0.68562024 -1.40168513
N   2.43067861  0.68287980 -0.15820043
C   2.27749699  1.85917823 -1.07405824
C   1.61538421 -2.84886710 -0.54989926
C   1.00556392 -4.22655433 -0.48095270
O   1.18589150 -1.93753792 -1.24546344
N  -0.36669049 -4.02334749 -0.00231408
C   1.08296126 -4.97919737 -1.84848328
C  -0.43946121 -3.96934562  1.41696467
C   1.97171985 -4.41307230 -2.86955682
C  -1.73653155 -3.44067796  2.03463374
O   0.53505030 -4.39900606  2.08053747
C   1.78385550 -5.34133384 -4.10365066
N  -2.26876220 -2.50431492  1.01339820
C  -2.77826917 -4.63892279  2.20057249
O   1.10186781 -4.83454359 -5.01427271
O   2.35868773 -6.45265802 -4.17820441
C  -1.70870602 -1.35201673  0.73616034
C  -4.28100382 -4.26175502  2.32026477
C  -2.40909459 -0.43504769 -0.27218049
O  -0.60756083 -1.00897787  1.13449748
O  -4.88740335 -5.05382937  3.06180951
O  -4.66706564 -3.21578906  1.65662865
N  -2.07640902  1.01235938 -0.10613008
C  -2.13254835 -0.88105715 -1.72470149
C  -2.89804904  2.04520226 -0.51117789
C  -2.89577627 -2.03142043 -2.24012806
C  -2.74076112  3.31129532  0.27784823
O  -3.77863274  1.92644808 -1.30471355
C  -2.36959910 -2.39049734 -3.64389953
N  -1.57653440  3.97958669 -0.31987392
C  -4.00722654  4.21148374  0.42493490
C  -2.88163411 -3.70085455 -4.09656900
C  -0.64512657  4.63160744  0.46296207
C  -4.61818054  4.42852361  1.80752774
N  -2.21188797 -4.77217421 -3.17853955
C   0.51458184  5.15866982 -0.35935698
O  -0.80404365  4.75032772  1.62900191
S  -5.59203693  3.18697709  2.65951917
N   1.13342914  3.98120729 -0.97629074
C   0.19489557  6.30839094 -1.27608749
C  -4.36936501  1.91066182  3.15318568
C   1.41700332  2.86643657 -0.32172097
C   1.36782870  7.07913515 -1.71779210
C  -0.64843246  5.86585332 -2.41478542
O   1.15150648  2.68784080  0.86891028
C  -2.05889655  6.45435032 -2.45979627
C   4.69791918 -1.86832409  1.08647179
C   5.45089500 -0.50157091  1.54943793
C   6.28170139 -0.64466758  2.82026668
N   5.69998177 -1.22548549  4.02855637
C   6.39997782 -1.41373885  5.22381692
N   7.54764143 -1.16641393  5.57528377
N   5.56247121 -2.03451204  6.16613174
C   1.63060323  1.39501926 -2.38480730
H   2.57138834 -3.42303043  1.15814580
H   2.99041826 -0.99585275  1.79954676
H   1.86412401  0.66242973  0.69240746
H   3.30592304  2.28138022 -1.25068023
H   1.53342700 -4.91001134  0.27029922
H  -1.18794312 -3.69039357 -0.49746657
H   0.09506227 -4.98052365 -2.30013642
H   1.28734193 -5.99622032 -1.68192718
H   1.61244476 -3.34101728 -3.11527722
H   3.08401651 -4.45776587 -2.55998194
H  -1.47584251 -2.94402852  2.96515548
H  -3.40500230 -2.52989633  0.88372028
H  -2.64819488 -5.33998214  1.27115376
H  -2.47866345 -5.20392134  3.14201969
H  -3.53614252 -0.70914851 -0.18623779
H  -1.41170896  1.27409128  0.63706650
H  -2.49978568  0.03534134 -2.21050960
H  -1.06284080 -1.03740846 -1.88109260
H  -2.94344380 -2.83251685 -1.50008764
H  -3.96009329 -1.57423485 -2.41084896
H  -2.50697425  2.98656329  1.29180148
H  -1.30741666 -2.51739096 -3.50576461
H  -2.70851277 -1.70471199 -4.39672675
H  -1.36490138  3.59497316 -1.21899512
H  -3.62976693  5.12959169 -0.04123784
H  -4.75849651  3.86057339 -0.26478346
H  -2.58531877 -3.82935535 -5.16020949
H  -3.97293529 -3.73341487 -3.97687452
H  -3.71391687  4.62631638  2.49924758
H  -5.21506687  5.39030604  1.70145573
H  -1.49015337 -5.23459846 -3.73888819
H  -2.90674876 -5.58767185 -2.98272190
H   1.26889242  5.52209222  0.35833744
H   1.45547106  4.04089729 -1.89923436
H  -0.57849816  6.90639903 -0.64962840
H  -4.87058102  1.28235874  3.91401011
H  -4.01178274  1.33772660  2.33778051
H  -3.55578033  2.42233587  3.67380248
H   1.72358219  7.74284208 -0.96426936
H   1.04719963  7.63290697 -2.60843606
H   2.12066794  6.39236573 -2.13331863
H  -0.06099642  5.97865191 -3.31451900
H  -0.75634552  4.79633967 -2.34085515
H  -2.10171662  7.63992124 -2.44862610
H  -2.66538165  6.23486014 -3.33589783
H  -2.69825402  6.09290485 -1.59453366
H   5.15579698 -2.36764369  0.25393447
H   4.63472906 -2.55892674  1.95652687
H   4.73311480  0.26708069  1.65255878
H   6.13781769 -0.23621373  0.67848200
H   7.29442547 -1.21260526  2.56953734
H   6.80244910  0.26853843  3.03488688
H   5.04618419 -2.02403298  3.83346075
H   8.18518454 -0.78930196  4.93881136
H   4.56767789 -1.90682889  5.93277440
H   5.77978111 -1.83335985  7.21213136
H   2.14236338  0.61441968 -2.93856132
H   1.52598627  2.13246171 -3.17001468
H   0.60371834  1.00684106 -2.14606698
