117
pH=7.04 total_charge=-2 partial_charge_sum=-2.000000 method=gasteiger energy=-581.38517350
N   2.50298744 -2.75950999  0.15776231
C   3.13038245 -1.43503272  0.50162839
C   3.08664328 -0.46123231 -0.64774058
O   3.70181282 -0.50946404 -1.72894051
N   2.36032411  0.64726352 -0.33133385
C   2.16905413  1.76040407 -1.32017425
C   1.41664041 -2.80916195 -0.70729093
C   0.81113903 -4.17796015 -0.56724302
O   0.94658288 -1.94130946 -1.39706696
N  -0.59579777 -4.23880817  0.11660604
C   0.72777637 -4.66421178 -2.01617235
C  -0.54588235 -3.86170742  1.44986894
C   1.97630435 -4.74249859 -2.82833167
C  -1.89293026 -3.50508605  2.10063526
O   0.47704824 -3.72870884  2.12992847
C   1.76573172 -5.83977625 -3.93260229
N  -2.58746844 -2.61889906  1.08314586
C  -2.77634342 -4.71976963  2.46116511
O   1.37906614 -5.44167793 -5.09249738
O   1.97131344 -7.00490620 -3.57167031
C  -2.13057900 -1.42744971  0.93873532
C  -4.14695664 -4.30255056  2.82144335
C  -2.78214571 -0.50847071 -0.18503951
O  -1.24721547 -0.91217033  1.60716533
O  -4.48089309 -4.73466677  3.98971008
O  -4.87266693 -3.61422365  2.03188391
N  -2.29627267  0.76239516  0.10340293
C  -2.22423343 -0.94026985 -1.56312691
C  -2.87939090  1.86343239 -0.27078226
C  -2.94680732 -2.02729790 -2.31971341
C  -2.43818786  3.12411988  0.60178010
O  -3.88535000  1.89008094 -0.99605628
C  -2.07002918 -2.27239534 -3.59835947
N  -1.29007652  3.78228525 -0.04693102
C  -3.61374693  4.03059602  0.71779877
C  -2.35359599 -3.70294452 -4.26666555
C  -0.78146686  4.95283548  0.29530482
C  -4.21864177  4.00492457  2.12357109
N  -2.51480740 -4.66964218 -3.19617400
C   0.67634418  5.21841291 -0.40381270
O  -1.30688509  5.86237747  0.93669282
S  -5.31636781  2.54633122  2.32868519
N   1.18833979  4.02453447 -0.96779913
C   0.48191190  6.36526686 -1.41963682
C  -4.22788569  1.49285025  3.15704537
C   1.77496676  2.95294606 -0.37433775
C   1.69179303  6.94854942 -1.91108576
C  -0.65157164  5.94764943 -2.44457107
O   1.86546064  2.94042894  0.81476203
C  -2.12809633  6.62816609 -2.14178294
C   4.64844050 -1.59450937  1.09005072
C   5.11343948 -0.13431491  1.56731662
C   5.99163856  0.05368306  2.77410025
N   5.64530399 -0.73510975  4.00890572
C   6.60399692 -1.23361954  4.90642612
N   7.87738391 -1.09182088  4.95808182
N   6.15804001 -2.06747766  5.85615082
C   1.03970254  1.43688490 -2.29939363
H   2.29751986 -3.36154229  0.99270638
H   2.37843456 -1.10258665  1.21259371
H   1.95917594  0.83691827  0.53965840
H   3.11320579  1.99158683 -1.91180597
H   1.49829803 -4.89923071 -0.09307389
H  -1.29352781 -3.79256651 -0.43632909
H  -0.02792770 -4.10832385 -2.58897143
H   0.29938713 -5.67086741 -1.89275786
H   2.13989306 -3.72886997 -3.31751159
H   2.79130725 -5.15951918 -2.11551205
H  -1.66059041 -2.92085045  2.98096766
H  -3.54297973 -2.92399078  0.72633291
H  -2.75296509 -5.52223856  1.68891504
H  -2.39196351 -5.16415979  3.36137480
H  -3.91134189 -0.57562703 -0.13100036
H  -1.53913111  0.65728077  0.78901416
H  -2.14296967 -0.01912008 -2.19684370
H  -1.20595519 -1.21834098 -1.29413426
H  -2.91731447 -3.00478847 -1.78842897
H  -4.00997923 -1.85374169 -2.56169320
H  -2.06055930  2.89576680  1.63706925
H  -1.05013016 -2.43102205 -3.39858893
H  -2.18386317 -1.36852959 -4.22686212
H  -0.57495543  3.19433878 -0.44443951
H  -3.26366995  5.07112947  0.61466672
H  -4.30014736  3.87175907 -0.13147881
H  -1.47936064 -4.02488565 -4.75488528
H  -3.09530824 -3.69153164 -5.05665330
H  -3.33721607  3.67132836  2.76753373
H  -4.71342833  4.89467396  2.55760428
H  -2.04656156 -5.55953270 -3.45188837
H  -3.52984079 -4.87323662 -3.09267507
H   1.24937772  5.53616175  0.42141639
H   0.93926419  3.90367187 -1.94236651
H   0.04717930  7.30680165 -0.94814320
H  -4.66260895  0.61406459  3.65542174
H  -3.54574028  0.97872108  2.39184351
H  -3.61819173  2.02856047  3.94134275
H   2.11320426  7.49319207 -1.06663902
H   1.58385023  7.79298460 -2.69657398
H   2.48699095  6.27867272 -2.28766938
H  -0.29702493  6.10875051 -3.44098396
H  -0.77250273  4.84138217 -2.29190910
H  -2.18190564  7.76591388 -2.18239333
H  -2.92573128  6.15344623 -2.71402369
H  -2.29852963  6.34066617 -1.08832796
H   5.21377811 -1.84510911  0.21212094
H   4.70154064 -2.26922604  1.90176420
H   4.20774385  0.49808395  1.68130709
H   5.73125491  0.30611042  0.80135367
H   7.02929349 -0.28725133  2.47172114
H   5.94570339  1.07522542  3.09574068
H   4.71847684 -0.98574527  4.32745725
H   8.36443559 -0.36198422  4.46983110
H   5.18961279 -2.27764600  5.99729736
H   6.77769952 -2.59971240  6.44561830
H   1.02040389  0.49086412 -2.80050749
H   0.98395426  2.31668100 -2.99046012
H   0.06489620  1.58735506 -1.80994734
