117
pH=7.04 total_charge=-2 partial_charge_sum=-2.000000 method=gasteiger energy=-581.22892350
N   2.58072395 -2.72091741  0.36403998
C   3.06167253 -1.40666908  0.69432847
C   3.16638799 -0.37012415 -0.36201578
O   3.84098101 -0.53722881 -1.38436952
N   2.46694841  0.77591683 -0.15361380
C   2.39729132  1.87516318 -1.18947092
C   1.58697582 -2.89531165 -0.54032862
C   0.98028122 -4.25020346 -0.47597023
O   1.20017895 -1.95602090 -1.22863894
N  -0.34887348 -4.08370135  0.15988395
C   0.77099082 -4.81859382 -1.93844707
C  -0.59017728 -3.84022909  1.47918660
C   1.90493165 -4.40821588 -2.96451210
C  -1.99287944 -3.34096439  2.02654894
O   0.22209686 -4.18830059  2.32929959
C   1.82217399 -5.39738151 -4.23496897
N  -2.61158004 -2.52194095  1.00048230
C  -2.78975917 -4.57470310  2.18670907
O   1.19242103 -4.95395021 -5.24739173
O   2.29480472 -6.56241296 -4.02902896
C  -1.96416299 -1.34671594  0.82917399
C  -4.28595655 -4.37490735  2.48346592
C  -2.53879383 -0.47535783 -0.17808512
O  -0.88051809 -1.05552142  1.42039679
O  -4.81018054 -5.13247562  3.22464749
O  -4.75178954 -3.39801075  1.84251322
N  -2.34492555  0.86375168  0.28039086
C  -1.86485685 -0.86611783 -1.44015081
C  -3.03512305  1.87894974 -0.26512894
C  -2.63224516 -1.93084481 -2.23110753
C  -2.73338229  3.28095417  0.37990550
O  -3.81063970  1.83528105 -1.22622351
C  -2.26976281 -2.36506859 -3.63385460
N  -1.56692572  3.87687245 -0.32271129
C  -3.94760313  4.20407735  0.45498395
C  -2.91840909 -3.78591934 -3.95029626
C  -0.61313877  4.55185842  0.40139132
C  -4.37364039  4.39073781  1.92110631
N  -2.56267367 -4.78232184 -2.95432790
C   0.54349461  5.00491424 -0.42183582
O  -0.67432054  4.84962810  1.55552559
S  -5.35898895  3.04677328  2.45648613
N   1.30402117  4.05110661 -1.13415851
C   0.21894201  6.29609187 -1.29872184
C  -4.03472307  1.86606758  3.05139560
C   1.72295603  2.96260139 -0.39522173
C   1.58596588  6.95815008 -1.50152605
C  -0.56278678  5.95406297 -2.63341031
O   1.36297747  2.77185370  0.78267171
C  -2.01386300  6.09237806 -2.40363923
C   4.49840996 -1.49122418  1.32065434
C   5.18758837 -0.17069849  1.62370198
C   6.36474953 -0.43722811  2.60763330
N   5.74903755 -1.11564537  3.76827519
C   6.41604462 -1.33615969  4.90096875
N   7.60671927 -1.04706366  5.20090634
N   5.58515168 -2.17847898  5.76419389
C   1.51932267  1.40329283 -2.31435313
H   3.17502360 -3.49191365  0.53937412
H   2.42728086 -0.94907132  1.46293103
H   1.63712362  0.63471344  0.43487088
H   3.44231041  2.12506885 -1.48977967
H   1.63405091 -4.90076484  0.12277895
H  -0.93382547 -3.71544078 -0.55356483
H  -0.16961930 -4.57387052 -2.37407547
H   0.80600484 -5.84508478 -1.71141052
H   1.69803050 -3.42401922 -3.29277437
H   2.97035126 -4.41248718 -2.61946877
H  -1.88141957 -2.73836880  2.91277970
H  -3.67302050 -2.78156112  1.18783492
H  -2.76792901 -5.03157560  1.17565337
H  -2.17736563 -5.31948132  2.82855289
H  -3.58997430 -0.68151825 -0.36662558
H  -1.69701139  1.01124387  1.04000654
H  -1.69276679 -0.00390114 -2.11529103
H  -0.88789100 -1.31651018 -1.36189250
H  -2.87562935 -2.77758550 -1.51962169
H  -3.66526942 -1.44747636 -2.33813729
H  -2.36517989  3.26783545  1.45283813
H  -1.16865390 -2.50976541 -3.77537446
H  -2.58234053 -1.64471490 -4.35861189
H  -1.46319721  3.69698481 -1.28587383
H  -3.74962418  5.09973099 -0.11905361
H  -4.84488972  3.85990452 -0.07013125
H  -2.64220033 -4.02832264 -4.98285853
H  -3.99660228 -3.77848611 -3.85435250
H  -3.47722178  4.69242375  2.54177405
H  -5.10808223  5.25292964  1.96180893
H  -1.70607448 -5.13356823 -2.84138645
H  -3.15433103 -5.62823354 -3.15759855
H   1.22610008  5.35220311  0.35263275
H   1.39257102  3.86280541 -2.11448827
H  -0.56826318  6.79890597 -0.63017985
H  -4.44504106  0.98324104  3.47130703
H  -3.47010095  1.69904343  2.14070441
H  -3.42283595  2.35583791  3.78009668
H   2.00135653  6.96288346 -0.49969232
H   1.30729867  7.96749819 -1.89446057
H   2.16499074  6.38398508 -2.19054614
H  -0.29385427  6.76217180 -3.37034506
H  -0.18165127  5.03391050 -3.01043055
H  -2.09110328  7.27318268 -2.37755369
H  -2.65764621  5.78106088 -3.33319991
H  -2.43737032  5.55350285 -1.48166099
H   5.12111004 -2.02683769  0.62902635
H   4.26614344 -2.15148177  2.21065060
H   4.54882462  0.49554366  2.12946599
H   5.31106999  0.22470331  0.58902398
H   7.21568658 -1.06008744  2.18514554
H   6.50643417  0.57254727  2.86588580
H   4.99817197 -1.84878497  3.59742928
H   8.24446630 -0.78039681  4.43025957
H   4.74006864 -1.60557583  5.89829101
H   6.13649812 -2.21190542  6.65405530
H   2.06524012  0.53218341 -2.61388727
H   1.36907093  2.12989400 -3.07572951
H   0.50924100  1.08285775 -1.95951427
