117
pH=7.04 total_charge=-2 partial_charge_sum=-2.000000 method=gasteiger energy=-582.40861100
N   2.31490954 -2.03694462  0.93056050
C   3.15809418 -0.95343781  1.38604516
C   3.21885174  0.21426903  0.42760630
O   4.25922896  0.67079122 -0.03064157
N   2.02643852  0.84213766  0.17827862
C   2.03325739  1.76929754 -0.90834776
C   2.19698487 -2.54967492 -0.27822880
C   1.33198307 -3.84049224 -0.33734103
O   2.71738376 -1.95446731 -1.20923726
N   0.05517439 -3.57474019  0.17902620
C   1.24686770 -4.33560929 -1.82928500
C  -0.29745440 -3.52355838  1.49082596
C   2.07051799 -5.58190191 -1.96312978
C  -1.74412405 -3.22384648  1.84227409
O   0.55234558 -3.75531033  2.37685573
C   1.80335241 -6.31491877 -3.40744054
N  -2.34314325 -2.34827735  0.95046885
C  -2.60579063 -4.49298811  1.89513885
O   1.26613453 -5.51903222 -4.20563474
O   2.13090620 -7.49763407 -3.54994535
C  -1.80964262 -1.15487542  0.66149686
C  -4.04738899 -4.01016934  2.40237840
C  -2.55050064 -0.10023060 -0.10957996
O  -0.70967369 -0.82619911  1.10921524
O  -4.38313610 -4.39384715  3.55131622
O  -4.66207704 -3.23808240  1.67851810
N  -2.45392342  1.22278755  0.56885737
C  -2.01863274 -0.07948933 -1.53705139
C  -3.38411420  2.19751186  0.27822446
C  -2.07370087 -1.37970271 -2.31972551
C  -2.89879211  3.65585547  0.57245670
O  -4.33576933  1.97939050 -0.39273569
C  -1.61123531 -1.16816502 -3.80107266
N  -1.95520171  3.99936132 -0.56181021
C  -4.07740257  4.68637359  0.76526758
C  -2.03260507 -2.25332062 -4.81501145
C  -0.99484829  4.99874872 -0.55446441
C  -4.35018030  4.93653491  2.37059006
N  -1.41916008 -3.50745502 -4.74164744
C  -0.00282261  4.86534406 -1.67345096
O  -0.93140602  6.02932550  0.09223644
S  -5.09889286  3.40604632  3.10023463
N   0.51962975  3.51046343 -1.86043205
C  -0.47420617  5.41609495 -3.06689623
C  -3.71103119  2.39762205  3.57450055
C   1.04304298  2.87558074 -0.73950358
C   0.78542909  6.00627602 -3.80230471
C  -1.29314820  4.42977495 -3.86332734
O   0.85387134  3.46672121  0.27448588
C  -2.40491773  5.22389301 -4.54319428
C   4.50685368 -1.65661366  1.70888862
C   5.50729365 -0.93490221  2.51803299
C   6.35023996 -1.95889876  3.28908614
N   5.46590288 -2.74611167  4.15325642
C   5.71813396 -3.37450116  5.31895105
N   6.81469499 -3.45285615  5.95078808
N   4.51749543 -3.73262803  6.04031857
C   1.95110446  0.99158431 -2.14785911
H   1.75123473 -2.57350761  1.67968344
H   2.82242761 -0.49442578  2.33291780
H   1.16683374  0.24083190  0.43303561
H   3.07013626  2.18117190 -0.84392834
H   1.95888641 -4.52994465  0.26437501
H  -0.67206460 -3.93383999 -0.45918879
H   1.27236610 -3.47109252 -2.49208971
H   0.16821156 -4.46975043 -2.02147947
H   3.09096938 -5.28560480 -1.97957646
H   1.81879633 -6.33671806 -1.25112544
H  -1.65514602 -2.76289351  2.86925338
H  -3.37306300 -2.57152415  0.81180669
H  -2.84099891 -4.92154048  0.93172718
H  -2.19570821 -5.29480953  2.55199218
H  -3.62886548 -0.20737088 -0.11052522
H  -1.48318530  1.45340122  0.99820143
H  -2.54008168  0.70121739 -2.07142054
H  -1.01845351  0.41955002 -1.42747568
H  -1.51993174 -2.23674718 -1.84788714
H  -3.11545805 -1.64219806 -2.27951213
H  -2.40588904  3.74219108  1.62382026
H  -0.52294418 -1.12150815 -3.83139810
H  -2.06724078 -0.22659575 -4.06883724
H  -1.66818120  3.21002593 -1.04978687
H  -3.60594599  5.59372629  0.40279714
H  -4.91338732  4.46027010  0.07399057
H  -1.87908503 -1.99152808 -5.82774391
H  -3.13421318 -2.39709541 -4.83995345
H  -3.41795578  5.16409978  2.91497734
H  -5.03047709  5.73914492  2.41415339
H  -0.52989986 -3.71845730 -5.04914761
H  -1.39234416 -3.94784040 -3.77442112
H   0.84719317  5.47008367 -1.36212651
H   0.88400792  3.29139656 -2.75602418
H  -1.05419128  6.24452392 -2.78734247
H  -4.29745755  1.45611252  3.62008806
H  -2.88374171  2.25724994  2.84872832
H  -3.34796440  2.75288927  4.54437358
H   1.70595588  5.53628241 -3.42312668
H   0.79785802  7.03603183 -3.45566249
H   0.70999575  5.85959336 -4.91893523
H  -0.58082813  3.99064007 -4.63843420
H  -1.67503492  3.66532748 -3.25748887
H  -1.80117979  5.98652392 -4.97538339
H  -2.99615125  4.62543571 -5.31855149
H  -3.02237991  5.52092432 -3.71243006
H   4.91625285 -2.01188884  0.79494128
H   4.39132432 -2.58414897  2.21135123
H   5.10263827 -0.17440518  3.17995887
H   6.20499733 -0.34788040  1.93637297
H   6.89471273 -2.61814682  2.65115823
H   7.14356892 -1.48757451  3.86390531
H   4.42594502 -2.66345521  3.98468208
H   7.58019644 -3.24348758  5.32385138
H   3.77452470 -4.30823356  5.51117155
H   4.85478934 -4.21722952  6.89057933
H   2.69499670  0.27447413 -2.01532583
H   1.95326203  1.57668053 -3.08490543
H   0.99498347  0.57055461 -2.12176456
