117
pH=7.04 total_charge=-2 partial_charge_sum=-2.000000 method=gasteiger energy=-581.49454850
N   2.37610392 -2.24458191  0.76444434
C   3.29335195 -1.07052593  1.16759736
C   3.28688328  0.13944379  0.22814991
O   4.32432830  0.58042079 -0.24553727
N   2.14069449  0.79555752  0.07669603
C   2.19631477  1.88132697 -0.90198030
C   2.14363777 -2.72025634 -0.47537020
C   1.14363396 -3.91077659 -0.51831572
O   2.72846960 -2.27395276 -1.48105631
N  -0.12586070 -3.58218324  0.20324008
C   0.81821719 -4.48851576 -1.91711401
C  -0.41348847 -3.53922698  1.54034642
C   1.98513724 -5.45277989 -2.31461542
C  -1.86902390 -3.25290994  1.81286343
O   0.31438166 -3.85032770  2.42936191
C   1.73787948 -6.29859507 -3.51774047
N  -2.45071772 -2.19552460  1.05622001
C  -2.75925391 -4.48409088  1.46397334
O   0.77137215 -5.95329464 -4.28429886
O   2.48292142 -7.29315446 -3.63083482
C  -1.85709112 -1.03302909  0.80281885
C  -4.28740451 -4.23511375  2.14627322
C  -2.74764254 -0.10819272 -0.15727645
O  -0.73755144 -0.68192774  1.08678417
O  -4.78589842 -5.08024760  2.84675897
O  -4.84142418 -3.18790736  1.85275743
N  -2.51827635  1.29526069  0.29159572
C  -2.20831648 -0.19023802 -1.68075744
C  -3.31031726  2.39810941 -0.00654751
C  -2.66546435 -1.37871664 -2.59016243
C  -2.68510804  3.67447602  0.61010896
O  -4.14199838  2.56445147 -0.83839801
C  -1.58886131 -1.68768777 -3.75187115
N  -1.70904227  4.01395829 -0.38846226
C  -3.67723761  4.71906913  1.00593389
C  -2.04400293 -2.87309032 -4.75986786
C  -0.88714126  5.12912526 -0.48437423
C  -4.15573172  4.76302449  2.38066669
N  -1.63394701 -4.21221977 -4.38804730
C   0.17465874  5.08765343 -1.50335882
O  -1.00807570  6.23655223 -0.03156171
S  -5.12254184  3.33756996  3.14858479
N   0.79848400  3.77652284 -1.63923709
C  -0.35698784  5.49297607 -2.87874326
C  -3.86415265  2.41683024  4.03293397
C   1.46916379  3.20111815 -0.51046157
C   0.62383413  6.23194668 -3.87542652
C  -1.26200306  4.51981977 -3.64099134
O   1.28482971  3.52208039  0.64955342
C  -2.18159484  5.27939146 -4.58593043
C   4.61857181 -1.63624712  1.71543925
C   5.41784986 -0.77418896  2.73158913
C   6.12665100 -1.50692767  3.88005170
N   5.27653534 -2.42535195  4.68271765
C   5.95992698 -3.18424294  5.72933893
N   7.25747725 -3.28869279  5.74445357
N   5.06492250 -3.81667286  6.53043675
C   1.91605542  1.33691844 -2.32714093
H   1.73668487 -2.69278146  1.50796205
H   2.68896439 -0.69194349  2.01829509
H   1.26982089  0.50426282  0.59496244
H   3.26552354  2.20327915 -1.06795837
H   1.59129781 -4.70941429  0.07039059
H  -0.83529574 -3.17074365 -0.40483993
H   0.66807518 -3.80422138 -2.80515211
H  -0.04804595 -5.04766249 -1.78803659
H   2.95061829 -4.86223018 -2.25537123
H   2.01769096 -6.08343972 -1.35611170
H  -1.90150607 -2.95277251  2.90127356
H  -3.50497306 -2.34450933  1.13205244
H  -2.82963804 -4.69213034  0.37416572
H  -2.32426187 -5.33510749  1.95309107
H  -3.74242704 -0.47887906 -0.04682575
H  -1.78104020  1.41177839  0.94661006
H  -2.48889045  0.78155351 -2.17455769
H  -1.14545540 -0.22129828 -1.64056485
H  -2.81009756 -2.35469523 -2.00246784
H  -3.68314333 -1.09750710 -2.92647806
H  -2.14605987  3.36549450  1.50217255
H  -0.79889719 -2.01729715 -3.01020185
H  -1.27729485 -0.82831737 -4.32600174
H  -1.26581265  3.19127462 -0.83811873
H  -3.20913324  5.69760609  0.85545075
H  -4.66096977  4.63787011  0.43030008
H  -1.63460249 -2.54771502 -5.76707621
H  -3.14459647 -2.72508600 -4.83186751
H  -3.26757599  4.84354270  3.02636453
H  -4.77352905  5.66590539  2.39960904
H  -0.72653914 -4.42399084 -4.68316822
H  -1.79909358 -4.49725748 -3.47776024
H   0.94295461  5.89996626 -1.34327311
H   1.13719436  3.50764307 -2.57314074
H  -1.08386072  6.28415588 -2.55754670
H  -4.20754771  1.54439790  4.55145331
H  -3.25342771  1.90672810  3.23095136
H  -3.14334094  2.97603053  4.64016334
H   0.61578043  5.60677064 -4.83144697
H   1.71816093  6.22639038 -3.49326444
H   0.24119143  7.19210214 -4.31706449
H  -0.66152655  3.83149783 -4.18167550
H  -1.93401931  3.93969338 -2.97841673
H  -1.55087384  5.64339802 -5.39769297
H  -2.89695079  4.58496096 -5.03839908
H  -2.70012839  5.92451687 -3.99994383
H   5.16742571 -2.08443532  0.85150790
H   4.20553137 -2.42437154  2.35833803
H   4.79005629  0.02840618  3.13513750
H   6.24351366 -0.16080668  2.18410329
H   7.00304549 -2.13685438  3.51612330
H   6.67936167 -0.86897936  4.49999723
H   4.48557012 -1.88073327  5.02610528
H   7.79152389 -2.76136791  5.12115362
H   4.27536871 -4.07970855  5.97506158
H   5.43696163 -4.67274544  7.00294852
H   2.44921356  0.34912500 -2.52440605
H   2.23474496  2.10752735 -2.90479841
H   0.83601939  1.13784502 -2.66432775
