117
pH=7.04 total_charge=-2 partial_charge_sum=-2.000000 method=gasteiger energy=-582.41642350
N   2.31175371 -2.06768457  0.98852431
C   3.19084493 -0.94476591  1.37316666
C   3.20518812  0.20736641  0.39454574
O   4.30134572  0.63736617 -0.02840701
N   2.03575169  0.83803416  0.19598663
C   2.01215837  1.75912597 -0.91816070
C   2.19007250 -2.53503215 -0.28652643
C   1.32499607 -3.85664339 -0.31578514
O   2.73551465 -1.92236701 -1.20785862
N   0.07545340 -3.58842260  0.17956586
C   1.18578759 -4.36941630 -1.83321154
C  -0.32430885 -3.52369501  1.46455415
C   2.04575747 -5.63128199 -1.99446777
C  -1.79716997 -3.26565024  1.82297626
O   0.53446351 -3.77009468  2.32115515
C   1.78742083 -6.30820882 -3.37456492
N  -2.38011940 -2.30126073  0.95780886
C  -2.59594968 -4.42864574  1.89794155
O   1.24543652 -5.52264355 -4.17961791
O   2.14594193 -7.48029670 -3.54477436
C  -1.81068943 -1.16404283  0.68890932
C  -4.04763882 -4.01056546  2.39495039
C  -2.52486768 -0.07221941 -0.10449982
O  -0.68219160 -0.82056226  1.10608404
O  -4.39539480 -4.43622386  3.51828276
O  -4.70723391 -3.21741490  1.63710353
N  -2.43215461  1.21112395  0.58236842
C  -2.04709586 -0.05847107 -1.51414150
C  -3.34652961  2.19468040  0.24524034
C  -2.05922231 -1.39363564 -2.31773180
C  -2.88093417  3.65655233  0.59405885
O  -4.33533605  1.98162495 -0.43579290
C  -1.60303955 -1.18745274 -3.76063572
N  -1.95723952  3.99569022 -0.54258218
C  -4.02278067  4.72145841  0.78425027
C  -2.04918398 -2.27761292 -4.74698403
C  -0.94722302  5.05215558 -0.56752036
C  -4.29368519  4.93911963  2.37112410
N  -1.40840648 -3.56531767 -4.75959775
C  -0.01667915  4.86550703 -1.67352480
O  -0.94703221  6.05112372  0.05350096
S  -5.10689499  3.40932088  3.08739500
N   0.52928101  3.49386757 -1.88993661
C  -0.44743722  5.42946939 -3.05735206
C  -3.74053044  2.39056778  3.58249734
C   1.07950462  2.88348294 -0.75152598
C   0.77750534  6.02541334 -3.80366010
C  -1.26876643  4.42082492 -3.86335142
O   0.88295541  3.49522501  0.30238160
C  -2.43810036  5.19449248 -4.54051247
C   4.50934667 -1.69963212  1.70605958
C   5.49763018 -0.94564066  2.54126841
C   6.33966246 -1.96407382  3.31960130
N   5.46437475 -2.74420904  4.13573449
C   5.72490849 -3.36094012  5.35297015
N   6.81855167 -3.47310817  5.95359494
N   4.49906366 -3.74217206  6.05656287
C   1.97080906  1.02658783 -2.12467359
H   1.72461552 -2.54549160  1.61249532
H   2.65996110 -0.55228090  2.25417255
H   1.27510811  0.27409605  0.42331823
H   2.94411273  2.25400496 -0.68551531
H   1.86670895 -4.59062784  0.26079060
H  -0.72552318 -3.82949740 -0.38452354
H   1.38175879 -3.52983902 -2.51165425
H   0.11161236 -4.63342361 -1.93640949
H   3.12469033 -5.29697985 -1.98751054
H   1.73179708 -6.37785348 -1.21426372
H  -1.74785860 -2.73801785  2.74702473
H  -3.37799075 -2.44956591  0.84129869
H  -2.64941027 -4.85983755  0.84753849
H  -2.17743651 -5.22257968  2.47603910
H  -3.59905751 -0.21284570 -0.17040627
H  -1.51734437  1.50674033  0.82815793
H  -2.70229553  0.69942985 -1.99797388
H  -1.07781845  0.43143875 -1.41173771
H  -1.73079736 -2.23202028 -1.71140888
H  -3.15298247 -1.62001955 -2.42815965
H  -2.33811906  3.73618480  1.49318354
H  -0.50597224 -1.11201480 -3.84512103
H  -2.22792969 -0.31799517 -4.07542853
H  -1.69631728  3.16490912 -1.12818449
H  -3.55179768  5.69594288  0.47671637
H  -4.93598458  4.52557661  0.24040482
H  -1.80027671 -2.01404063 -5.83956884
H  -3.13868188 -2.33816956 -4.63641017
H  -3.40235300  5.15783890  2.93493991
H  -4.96509105  5.83728522  2.58454293
H  -0.42273820 -3.73719889 -5.14478825
H  -1.35539444 -3.98867912 -3.89042408
H   0.82254335  5.51288677 -1.37464042
H   0.82567233  3.31276845 -2.85143803
H  -1.06930285  6.34289352 -2.78341882
H  -4.30971655  1.48938661  3.79394647
H  -2.99148823  2.31695350  2.82917398
H  -3.30078439  2.65640004  4.52943223
H   1.79081880  5.64752781 -3.40578471
H   0.76527760  7.11062804 -3.64352069
H   0.61310669  5.78640173 -4.85101170
H  -0.69594542  3.82612443 -4.54188931
H  -1.71345741  3.63474577 -3.18826411
H  -1.93821495  6.12426646 -4.94187592
H  -2.92541806  4.72798638 -5.32192197
H  -3.19112087  5.62068412 -3.83927455
H   5.03915563 -1.86401117  0.72736202
H   4.21661041 -2.69765064  2.15264297
H   5.08656372 -0.20330702  3.26019678
H   6.07225392 -0.31829733  1.81551181
H   6.89798797 -2.59877534  2.58014286
H   7.14497517 -1.41169890  3.85682018
H   4.51102934 -2.60132116  4.08362443
H   7.60617145 -3.16205832  5.38911760
H   3.90747672 -4.30284200  5.54788485
H   4.88992170 -4.16556823  6.88190046
H   2.78527214  0.21822952 -2.22360196
H   2.15729931  1.70286112 -2.95419362
H   0.93907054  0.55244496 -2.24240359
