117
pH=7.04 total_charge=-2 partial_charge_sum=-2.000000 method=gasteiger energy=-581.46329850
N   2.79825202 -2.47075914  0.68959413
C   3.45628755 -1.26576810  1.05030334
C   3.29394500 -0.20607429 -0.00254555
O   4.15996076  0.16521745 -0.77973576
N   2.19164509  0.51298603  0.07582538
C   1.95832199  1.60224033 -0.86190631
C   2.00382670 -2.78797052 -0.39160749
C   1.25871837 -4.11023641 -0.43201120
O   1.82979783 -2.01870083 -1.32120141
N  -0.11295627 -3.85417378  0.10750489
C   0.91077579 -4.84015047 -1.71907039
C  -0.47243446 -3.90544821  1.44196287
C   2.03584943 -5.42210026 -2.56825764
C  -1.87554430 -3.34509697  1.70255903
O   0.40910721 -4.31381866  2.22307276
C   1.66614959 -6.06676768 -3.95599210
N  -2.51482627 -2.57426776  0.62206240
C  -2.99768987 -4.51857340  1.89552457
O   0.46202518 -6.16869185 -4.34899621
O   2.77606318 -6.26396683 -4.51173570
C  -1.85635692 -1.45338104  0.36206602
C  -4.37875080 -3.87764013  2.14210993
C  -2.56710585 -0.41763626 -0.53754468
O  -0.75918397 -1.09013669  0.88262323
O  -5.13194000 -4.34781001  2.98105958
O  -4.70644777 -2.79840882  1.54350434
N  -2.27834515  0.93612166 -0.03211080
C  -2.08619268 -0.65892128 -1.95503048
C  -3.31504365  1.92702979  0.01453067
C  -2.24215237 -2.06086835 -2.53514537
C  -2.79104530  3.16733520  0.75775017
O  -4.40096435  1.84279430 -0.46052728
C  -1.96375058 -2.29573776 -4.09951067
N  -1.67120374  3.68806268 -0.06185375
C  -3.85377769  4.33045948  0.69939308
C  -2.72984046 -3.50828496 -4.62728949
C  -0.89228107  4.74443709  0.32983427
C  -4.45746740  4.48941483  2.12512238
N  -2.41325239 -4.78041044 -4.02799430
C   0.36655564  5.00291233 -0.57995468
O  -1.18566287  5.52014809  1.23260299
S  -5.61050153  3.17859291  2.57811882
N   0.95783488  3.73423704 -1.05916502
C   0.08501538  6.09123281 -1.59032435
C  -4.48204043  1.89389048  3.34379379
C   1.42419955  2.75304994 -0.18055945
C   1.51602001  6.39825563 -2.32109043
C  -1.00148663  5.65314404 -2.50083243
O   1.43568568  2.94635905  1.05241183
C  -1.83455512  6.80759700 -3.00182290
C   4.96582993 -1.50707653  1.21439490
C   5.81535665 -0.39176446  1.77889907
C   6.61797365 -0.84917366  2.97212545
N   5.75478781 -1.09733637  4.08279967
C   6.41270396 -1.54316618  5.25724033
N   7.66432258 -1.83005648  5.34581574
N   5.60959345 -1.53771322  6.35799481
C   1.36740281  1.10864839 -2.26171836
H   2.47305001 -3.03086032  1.50144791
H   2.91194979 -0.89515273  1.92662137
H   1.44378948  0.01531136  0.51050633
H   2.95586028  1.90695252 -1.23868727
H   1.78675310 -4.72550882  0.31079972
H  -0.91748236 -3.83515036 -0.57235871
H   0.50551623 -4.06133515 -2.32840938
H   0.10935555 -5.56443127 -1.48849683
H   2.65411576 -4.58984301 -2.98961145
H   2.70978715 -6.17797302 -2.06470641
H  -1.74891564 -2.66608210  2.52886013
H  -3.71972504 -2.47178151  0.85583426
H  -2.99317473 -5.11764410  0.91229017
H  -2.68838469 -5.20085087  2.72191239
H  -3.73744191 -0.65065206 -0.36376740
H  -1.49505001  0.90347057  0.62194062
H  -2.68458233 -0.04667179 -2.67276830
H  -0.99572158 -0.44434133 -2.13964372
H  -1.59232454 -2.78103567 -1.96231448
H  -3.28192257 -2.30657011 -2.41716416
H  -2.44384037  2.91345757  1.77638380
H  -0.87057421 -2.51080266 -4.18536951
H  -2.32696617 -1.37942867 -4.67671066
H  -1.25642593  3.00705007 -0.69613669
H  -3.39219645  5.24569890  0.39251331
H  -4.63730979  3.94257814 -0.01919801
H  -2.31174898 -3.52532410 -5.62365445
H  -3.78911629 -3.46264800 -4.56938862
H  -3.59757064  4.75795931  2.77210327
H  -5.05974352  5.44610452  2.03893340
H  -1.48665372 -5.15017218 -4.28471542
H  -3.11361795 -5.42115724 -4.27056853
H   1.06865996  5.29462937  0.31622175
H   0.95185644  3.53967443 -2.04174355
H  -0.10053051  6.95614087 -1.05527409
H  -4.88968597  1.71442663  4.35743698
H  -4.55482052  1.04973371  2.66672298
H  -3.41497482  2.21410055  3.51895160
H   1.95815842  7.22233223 -1.79527713
H   1.38380763  6.80471633 -3.30801645
H   2.28645350  5.55882183 -2.24442382
H  -0.57389777  5.16559991 -3.39982520
H  -1.57234400  4.79733961 -2.08143522
H  -1.37965915  7.18038455 -3.87461635
H  -2.75811504  6.47332534 -3.56725936
H  -2.07082846  7.50944413 -2.22820138
H   5.28996839 -1.75663889  0.20469760
H   5.19456489 -2.43342207  1.85121702
H   5.12225385  0.23148862  2.29453468
H   6.44117218  0.14975924  1.05016914
H   7.23183696 -1.72467480  2.65201011
H   7.41037206 -0.18182048  3.17016269
H   5.11569299 -0.26953658  4.14834333
H   8.04793872 -1.56569591  4.38438042
H   4.70924128 -1.26063937  6.34063013
H   6.09962206 -1.32948685  7.19709938
H   2.08101922  0.50764240 -2.77312936
H   1.44463953  1.99037215 -2.92927943
H   0.25418310  0.87527045 -2.33584500
