117
pH=7.04 total_charge=-2 partial_charge_sum=-2.000000 method=gasteiger energy=-581.13517350
N   2.47993338 -2.72266814  0.11002922
C   3.13766857 -1.47565320  0.53271356
C   3.10884134 -0.40226061 -0.69177711
O   3.62537809 -0.55769156 -1.75349126
N   2.38416075  0.70284192 -0.38526786
C   2.12404432  1.67827069 -1.31868047
C   1.31315825 -2.79196408 -0.58693895
C   0.66553349 -4.24001564 -0.59853368
O   0.98776070 -1.90854269 -1.34756858
N  -0.50831799 -4.14548905  0.16765309
C   0.65448587 -4.78827233 -2.02152604
C  -0.53239212 -3.76849456  1.50865110
C   2.04076058 -4.79319786 -2.83679214
C  -1.91411254 -3.48264532  2.00071419
O   0.49565270 -3.72659369  2.15583626
C   1.75039453 -5.86402080 -3.97128294
N  -2.58519221 -2.67170905  1.05038236
C  -2.62412091 -4.74296773  2.34857771
O   1.37578896 -5.45007666 -5.04891842
O   1.98323769 -7.02742482 -3.51958369
C  -2.20696206 -1.35568489  0.91858646
C  -4.12361585 -4.33762692  2.91341375
C  -2.81169157 -0.59312146 -0.18414806
O  -1.22729012 -0.98088431  1.60302065
O  -4.39310226 -4.59660916  4.05152410
O  -4.74145078 -3.77155705  2.02866206
N  -2.16183159  0.76552862  0.03795010
C  -2.25162305 -0.94814804 -1.54133102
C  -2.88841440  1.86248794 -0.21442623
C  -2.88662020 -2.05416776 -2.32334122
C  -2.47088177  3.08318908  0.63178637
O  -3.78034533  1.90374980 -1.03564271
C  -2.12514667 -2.30223824 -3.64667489
N  -1.25918811  3.74969390  0.11611071
C  -3.64097853  4.08098996  0.83845566
C  -2.32092815 -3.62573230 -4.32597337
C  -0.74236798  5.04670729  0.27256005
C  -4.16166952  3.89491937  2.23323185
N  -2.44984120 -4.67744252 -3.30375266
C   0.56119544  5.27658556 -0.31578315
O  -1.25436916  5.97488630  0.88806206
S  -5.34685235  2.56433585  2.29598227
N   1.05469400  3.99404613 -1.00703405
C   0.33212905  6.33633608 -1.34677248
C  -4.21549143  1.40256098  3.09839850
C   1.72639570  2.98708810 -0.37414215
C   1.77358967  6.87983330 -1.90529211
C  -0.72606284  5.99667117 -2.40250375
O   1.93275913  2.93898081  0.80947162
C  -2.01104778  6.63573499 -2.10889267
C   4.56040729 -1.53875564  0.99549087
C   4.94682731 -0.16875318  1.59925168
C   5.93399635  0.06276468  2.86647366
N   5.65840030 -0.71456780  4.02219935
C   6.60429250 -1.27239055  4.84855620
N   7.89991195 -1.03775960  4.92684264
N   6.15773418 -2.08103100  5.88223410
C   0.91244723  1.50651168 -2.23289597
H   2.66812891 -3.36241795  0.86077497
H   2.66404860 -1.03280355  1.43712486
H   1.86817123  0.64168846  0.49007783
H   3.03577912  1.85102225 -1.88670247
H   1.36594766 -4.75793102  0.06138195
H  -1.47951252 -4.00373855 -0.24279195
H  -0.03194740 -4.15655351 -2.68912251
H   0.21714369 -5.76495339 -2.06346719
H   2.27061902 -3.85099103 -3.18318375
H   2.85150307 -5.16859869 -2.30368992
H  -1.76031550 -2.93823082  2.94331527
H  -3.52953713 -3.01068670  1.03242958
H  -2.75790115 -5.35901809  1.49180589
H  -1.94762573 -5.33476347  3.02594545
H  -3.90735525 -0.46873524 -0.13560058
H  -1.48947246  0.75421317  0.83279639
H  -2.31144630 -0.03786275 -2.11057637
H  -1.18602989 -1.28842191 -1.53004152
H  -2.95484199 -2.90728003 -1.69943948
H  -3.82690803 -1.61594512 -2.59612026
H  -2.26033023  2.61031560  1.55929453
H  -1.10190250 -2.05644355 -3.38187184
H  -2.34083324 -1.55917578 -4.36411775
H  -0.62510969  3.09943200 -0.34192350
H  -3.29165035  5.16018943  0.72102907
H  -4.48747670  3.79420017  0.21056211
H  -1.36959228 -3.82144434 -4.95139449
H  -3.14722561 -3.54442307 -5.01770062
H  -3.51361320  4.01897531  3.02283593
H  -4.78436704  4.73971335  2.43329648
H  -2.01092907 -5.56528728 -3.56852755
H  -3.31563153 -4.82720836 -2.86129226
H   1.36991232  5.57249346  0.40062025
H   1.29084047  4.15341254 -1.99371319
H  -0.06356473  7.07066356 -0.67615738
H  -4.89527440  0.57714542  3.49121541
H  -3.50176595  1.05898703  2.44510248
H  -3.65467227  1.93417253  3.87427771
H   2.43568870  7.36130612 -1.10327730
H   1.57895109  7.60089464 -2.65737398
H   2.20355166  6.10980480 -2.53950710
H  -0.40070144  6.32031994 -3.46465385
H  -0.90094247  4.93139960 -2.49688227
H  -2.05151122  7.60418708 -2.44625763
H  -2.81127445  6.09195814 -2.64685871
H  -2.35841887  6.69267398 -1.01876304
H   5.31384317 -1.88535340  0.24187836
H   4.60938635 -2.35735402  1.74623171
H   3.99829989  0.27503068  2.00275624
H   5.21816515  0.49011457  0.75172152
H   6.95880872  0.00448014  2.56770231
H   5.97032042  1.16176675  3.03156893
H   4.79130398 -1.20490830  3.93749745
H   8.12763235 -0.52077341  4.06942507
H   5.24381417 -2.45733241  5.97069862
H   6.95067641 -2.39289274  6.37171580
H   1.07629030  0.62214876 -2.84403386
H   0.77922326  2.23345554 -3.00579008
H   0.01709127  1.32603635 -1.66560047
