117
pH=7.04 total_charge=-2 partial_charge_sum=-2.000000 method=gasteiger energy=-581.36173600
N   2.53003502 -2.59770635  0.41124936
C   3.11031819 -1.34280922  0.79573414
C   3.16187165 -0.48861600 -0.42309035
O   3.84791273 -0.64951009 -1.38746371
N   2.51336436  0.70050155 -0.12877273
C   2.36486083  1.73024655 -1.15840691
C   1.53653814 -2.78008255 -0.55467878
C   0.92402328 -4.22966147 -0.50409550
O   1.13573077 -1.95903776 -1.38022593
N  -0.39698648 -4.03857838  0.03896468
C   0.94856459 -5.01388139 -1.96192658
C  -0.50516894 -3.97492720  1.36411454
C   1.92374510 -4.43439575 -2.86951549
C  -1.84545034 -3.47775870  1.88889416
O   0.28535999 -4.24547538  2.25909750
C   1.77951468 -5.29379468 -4.17133214
N  -2.53867184 -2.46871521  1.14555683
C  -2.75572304 -4.69879376  2.16438557
O   1.14340071 -4.82466459 -5.14102276
O   2.33047922 -6.41356875 -4.01788187
C  -1.89425076 -1.30989429  0.86617306
C  -4.23232391 -4.34817593  2.45832502
C  -2.44991755 -0.41390573 -0.25510508
O  -0.75277050 -1.09544198  1.29907631
O  -4.94136156 -5.10275215  3.13529331
O  -4.68589545 -3.37053015  1.79887847
N  -2.23212113  0.98479170  0.14359391
C  -1.86915549 -0.89453740 -1.59564925
C  -2.96068745  2.00620246 -0.31676034
C  -2.73416726 -1.97921493 -2.24299276
C  -2.72730533  3.30121726  0.38023041
O  -3.76035609  1.80867598 -1.25492699
C  -2.41072538 -2.38425311 -3.64280372
N  -1.61058120  3.98431194 -0.32108130
C  -3.92574323  4.21534326  0.49122295
C  -2.92638512 -3.75446534 -4.00674181
C  -0.62355848  4.54490125  0.44189264
C  -4.40600472  4.40584533  1.95259980
N  -2.40368168 -4.77882005 -3.06694350
C   0.58302227  5.06244839 -0.31237178
O  -0.77822288  4.69119650  1.64818903
S  -5.50286618  3.07335674  2.53875775
N   1.21303794  3.97473592 -1.09346139
C   0.28373658  6.24105417 -1.28365041
C  -4.16877869  2.01466118  2.98793262
C   1.59487587  2.86799918 -0.39143985
C   1.49852702  7.08210212 -1.58482374
C  -0.59523941  5.91807866 -2.56065816
O   1.28074339  2.87988593  0.76083830
C  -2.12483006  6.27990719 -2.50703197
C   4.55066554 -1.70722799  1.21997681
C   5.35313020 -0.30171147  1.66736129
C   6.46759845 -0.45787992  2.73142542
N   5.77702929 -1.15141647  3.83965254
C   6.35220753 -1.39261029  4.98427042
N   7.52544937 -1.03177188  5.36042437
N   5.57161364 -2.12335995  5.93462155
C   1.65441261  1.36526657 -2.40985657
H   2.38079449 -3.20037691  1.20263546
H   2.69360001 -0.88229848  1.62653703
H   1.96424443  0.69877624  0.72810709
H   3.41322463  2.14581076 -1.30920763
H   1.49545512 -4.74025977  0.32155251
H  -1.13246971 -3.54071136 -0.53478994
H  -0.06715267 -4.98182070 -2.46491773
H   1.12136422 -6.06713745 -1.72901592
H   1.75168893 -3.26831989 -3.17326685
H   2.89308630 -4.55061955 -2.55648538
H  -1.53839612 -3.06874686  2.83017172
H  -3.94296985 -2.85445928  1.27206946
H  -2.72339661 -5.42722272  1.35355072
H  -2.23053834 -5.16772444  2.99826773
H  -3.41970649 -0.71065672 -0.31879429
H  -1.46604225  1.16524298  0.81753717
H  -1.54138708 -0.10890319 -2.27169257
H  -0.96630195 -1.44175214 -1.49011926
H  -2.66144801 -2.85858706 -1.57046722
H  -3.76372758 -1.66167800 -2.15743044
H  -2.39351705  3.11821721  1.36164235
H  -1.27838866 -2.37208711 -3.85727979
H  -2.94825190 -1.65936340 -4.34748074
H  -1.42110874  3.72203930 -1.30063533
H  -3.61629379  5.13055562 -0.06108733
H  -4.71302052  3.78591957 -0.08005413
H  -2.54351599 -3.93333395 -5.00219058
H  -4.01556634 -3.74742613 -3.98394280
H  -3.51813994  4.46374114  2.52888940
H  -4.89412639  5.42830580  2.11451602
H  -1.48057160 -5.20407861 -3.37761725
H  -3.09221974 -5.52795125 -2.95430179
H   1.32039008  5.37055018  0.41427129
H   1.65847132  4.20650644 -1.93070213
H  -0.49458455  6.72637537 -0.74762138
H  -4.45612057  1.22939021  3.69968030
H  -3.71322809  1.64562878  2.13398388
H  -3.54078072  2.65243408  3.57232385
H   1.76773587  7.48735819 -0.65290267
H   1.12360494  7.76077388 -2.22462184
H   2.14341712  6.42503886 -2.07531701
H  -0.07553869  6.47051097 -3.35390610
H  -0.42356654  4.81366280 -2.67910074
H  -2.18204212  7.33659888 -2.15663712
H  -2.69546069  6.21118590 -3.45741688
H  -2.57173704  5.53981626 -1.76123145
H   5.01751614 -2.05942485  0.27291765
H   4.51938423 -2.45568287  2.00382670
H   4.56569283  0.40450048  2.02540134
H   5.67013017  0.13397278  0.69905507
H   7.19857596 -1.15749655  2.33699583
H   6.81494240  0.53285311  3.07594206
H   4.77464392 -1.35439924  3.68493829
H   8.04044796 -0.47406895  4.71788063
H   4.70056451 -1.69661702  6.23608118
H   5.99360757 -2.65513951  6.71245579
H   2.28861600  0.55224734 -2.85001137
H   1.66097103  2.29161042 -3.01953130
H   0.55359580  1.05489617 -2.11575924
