117
pH=7.04 total_charge=-2 partial_charge_sum=-2.000000 method=gasteiger energy=-581.19767350
N   2.79767091 -2.84736051  0.14534413
C   3.15420830 -1.45367861  0.55646459
C   3.21464998 -0.32874870 -0.46150368
O   3.93835435 -0.48510746 -1.41428749
N   2.44545516  0.79332100 -0.24142375
C   2.20937781  1.77124077 -1.16022124
C   1.59888699 -2.83410241 -0.50848491
C   0.87252971 -4.16640460 -0.55643740
O   1.17734645 -1.86106784 -1.05141486
N  -0.34782543 -3.94466974  0.15514511
C   0.75852313 -4.81614844 -1.99447473
C  -0.50461072 -3.87320827  1.52331841
C   1.90248700 -4.56589811 -2.92588415
C  -1.89810617 -3.50167915  2.03788961
O   0.50100271 -4.03332810  2.18765079
C   1.84036485 -5.59413489 -4.18215252
N  -2.55824657 -2.63273546  1.06773726
C  -2.89102421 -4.69120560  2.23779535
O   1.32314325 -5.18455721 -5.26531460
O   2.25443352 -6.74502394 -3.86274220
C  -2.00935718 -1.42032433  0.92653980
C  -4.33721795 -4.31189038  2.66820438
C  -2.50564060 -0.46370548 -0.14145992
O  -1.12709775 -0.87301993  1.57418839
O  -4.84331020 -5.01819973  3.56877088
O  -4.97642765 -3.31082071  2.02409240
N  -2.38820783  0.94039723  0.32798416
C  -2.03642653 -0.64311738 -1.56102392
C  -3.12809933  1.93609354 -0.21886831
C  -2.67097417 -1.82689723 -2.25516083
C  -2.68313882  3.22472907  0.38475083
O  -3.87888090  1.78580694 -1.21154957
C  -2.00152965 -2.42904453 -3.48670231
N  -1.43548385  3.63612559 -0.27313676
C  -3.86152939  4.19418970  0.32019287
C  -2.82294557 -3.66211628 -3.96879236
C  -0.67684813  4.55418373  0.29869330
C  -4.44184769  4.30125847  1.71784941
N  -2.70347118 -4.78864366 -2.96177175
C   0.58722749  5.04934566 -0.47293715
O  -1.08677271  5.07745718  1.32402373
S  -5.16777669  2.86986890  2.53643405
N   1.35668380  4.00628197 -1.20528222
C   0.33441052  6.29819262 -1.28853494
C  -4.02075430  1.45890366  3.21083469
C   1.69968112  2.95377259 -0.43307894
C   1.61022682  6.98414110 -1.63858951
C  -0.54871395  6.03117101 -2.50802493
O   1.48466897  2.93397075  0.80186491
C  -2.14263411  6.19588155 -2.43889303
C   4.46097568 -1.46810963  1.24730423
C   5.06045646 -0.10209356  1.55979731
C   6.25797277 -0.49582594  2.46132704
N   5.71065508 -0.88291393  3.77766519
C   6.47253234 -1.30067970  4.87649737
N   7.74362714 -1.01709766  5.11611540
N   5.73516621 -2.06366183  5.82716933
C   1.31325220  1.37043886 -2.37128775
H   2.76261576 -3.38477087  0.96045775
H   2.41160453 -1.15633343  1.26845116
H   1.75447107  0.70932166  0.49161929
H   3.13660363  2.12255973 -1.56395462
H   1.58988538 -4.80534113  0.08083777
H  -1.25153173 -3.67101390 -0.30838605
H  -0.26961251 -4.36493255 -2.34194502
H   0.58474528 -5.89445432 -1.94759416
H   1.82087819 -3.50226689 -3.47296759
H   2.68959733 -4.69478600 -2.24365869
H  -1.77413974 -2.99608099  2.97845956
H  -3.62915829 -2.53795110  1.15628387
H  -2.99059884 -5.29770843  1.33610880
H  -2.71498348 -5.27510655  3.18908853
H  -3.53523509 -0.64246523 -0.13340164
H  -1.74113149  1.14839816  1.10387632
H  -2.23044818  0.28384648 -2.10399471
H  -0.90483613 -0.70743077 -1.47094933
H  -2.75667728 -2.67692601 -1.58470643
H  -3.58463429 -1.48595257 -2.59970960
H  -2.43475285  3.00345778  1.48000027
H  -0.93533155 -2.75895988 -3.38229922
H  -2.11583805 -1.75995894 -4.39857929
H  -1.23850460  3.32011523 -1.22231223
H  -3.48422148  5.19574966 -0.01178050
H  -4.52186190  3.81760244 -0.44950055
H  -2.51740559 -3.88115192 -5.04371189
H  -3.86163414 -3.36444171 -4.12894769
H  -3.74982740  4.84417585  2.32170208
H  -5.45040081  4.79152208  1.50621354
H  -1.79525807 -5.18346076 -2.88056510
H  -3.34664163 -5.56711372 -2.96319910
H   1.08396297  5.44761845  0.42607682
H   1.43820087  3.97344596 -2.16365847
H  -0.15149148  6.98854849 -0.61442738
H  -4.54594548  0.51533271  3.49335176
H  -3.30310314  1.21485127  2.50167720
H  -3.48023588  1.80406646  4.08991735
H   2.30872975  7.04883683 -0.82913890
H   1.32741426  7.90191525 -2.06872920
H   2.14188267  6.48811787 -2.44072708
H  -0.22647195  6.64351268 -3.33103829
H  -0.24505700  5.04365944 -2.80173703
H  -2.19721571  7.22968878 -2.67244715
H  -2.67361114  5.57348741 -3.12846607
H  -2.55039859  5.93580964 -1.39508759
H   5.05747935 -1.97097991  0.53577047
H   4.38839169 -2.03423923  2.16467741
H   4.38686464  0.43439736  2.22524895
H   5.28718235  0.65613999  0.77300433
H   6.85207946 -1.31741275  2.02957144
H   7.01374678  0.24985320  2.77738757
H   4.71911649 -1.13692116  3.70180649
H   8.01015492 -0.46908079  4.29707446
H   4.85773837 -2.52484937  5.54718577
H   6.32253029 -2.38240273  6.55644495
H   1.73637870  0.40867504 -2.79872234
H   1.23235843  2.08427617 -3.18922369
H   0.18893811  1.16095236 -2.03888949
