117
pH=7.04 total_charge=-2 partial_charge_sum=-2.000000 method=gasteiger energy=-582.36954850
N   2.21815446 -2.07831812  1.00798493
C   3.26780019 -1.17124785  1.38800136
C   3.29814001  0.05911127  0.48636646
O   4.36834642  0.40382850 -0.03730198
N   2.20778553  0.85372727  0.20344609
C   2.19576808  1.83197660 -0.82033367
C   2.10166291 -2.53283520 -0.34699317
C   1.25515564 -3.87307912 -0.44197175
O   2.76045645 -1.98906455 -1.21707242
N  -0.11549009 -3.46956138  0.06756802
C   1.14715581 -4.64845288 -1.74623440
C  -0.45802028 -3.47656136  1.37225566
C   2.04257928 -5.84337559 -2.02066919
C  -1.77802303 -3.15191897  1.82146945
O   0.43834896 -3.79960946  2.24734511
C   1.79334321 -6.37342815 -3.42805484
N  -2.36053931 -2.11348937  0.96334621
C  -2.63211627 -4.40148735  1.78011903
O   1.10529533 -5.73082818 -4.25000122
O   2.28382548 -7.50046433 -3.63135539
C  -1.79317676 -0.95224424  0.68974501
C  -4.18440633 -4.12559088  2.28113184
C  -2.65586703  0.04629220 -0.06355571
O  -0.59250456 -0.67537918  0.91418458
O  -4.56111725 -4.76567169  3.26919142
O  -4.72956314 -3.21973898  1.62541351
N  -2.42930333  1.33083571  0.50377437
C  -2.10371205 -0.02260041 -1.50087746
C  -3.28156352  2.31603736  0.19358861
C  -2.20435918 -1.43319721 -2.15341581
C  -2.70885722  3.65939337  0.57192580
O  -4.19225914  2.19464632 -0.63874302
C  -1.55127216 -1.51526641 -3.51338131
N  -1.78882472  4.00206333 -0.49708589
C  -3.76646717  4.74508205  0.89345026
C  -2.10982959 -2.52406966 -4.53265155
C  -1.08656267  5.19283399 -0.57734929
C  -4.12383231  4.85232527  2.33076112
N  -1.37213254 -3.73693592 -4.76155481
C   0.04643132  4.97901422 -1.68119469
O  -1.17579657  6.23659802 -0.02723080
S  -5.12884234  3.42816822  2.98679166
N   0.53125548  3.57070910 -1.73213079
C  -0.52253349  5.57369130 -3.02478539
C  -3.89295629  2.38371105  3.69352713
C   1.14573605  2.98654191 -0.60891773
C   0.55760019  6.13759360 -4.01332063
C  -1.41059180  4.56439872 -3.79577119
O   0.99297096  3.53268451  0.47096458
C  -2.59855487  5.19142013 -4.63342053
C   4.71808270 -1.79687021  1.56050758
C   5.37295035 -0.95143438  2.68077459
C   6.26705226 -1.84247547  3.50947139
N   5.37955435 -2.59197592  4.39954004
C   5.82176629 -3.33588368  5.50203427
N   6.98915715 -3.38437147  6.06054022
N   4.69922786 -3.79720815  6.17607392
C   2.02212178  1.14339270 -2.25136508
H   1.78152563 -2.72120034  1.67867349
H   3.04841078 -0.70847578  2.39232382
H   1.28956501  0.61246698  0.54214108
H   3.16281541  2.26042928 -1.01122500
H   1.76669713 -4.45923143  0.34544877
H  -0.63125247 -2.88687069 -0.60592055
H   1.28599879 -3.99884216 -2.56714377
H   0.07972033 -4.92677947 -1.98595892
H   3.16963107 -5.72186648 -1.90981977
H   1.74771672 -6.62860872 -1.37468410
H  -1.62802807 -2.83403259  2.83491178
H  -3.40764624 -2.24061576  0.76144436
H  -2.79652485 -4.80177640  0.77983991
H  -2.10884380 -5.11164063  2.40705299
H  -3.72207035 -0.20569324 -0.02865963
H  -1.58611571  1.47209908  1.16064868
H  -2.57139969  0.70107305 -2.17691869
H  -0.98332495  0.31250675 -1.37048116
H  -1.81713320 -2.28239555 -1.59158181
H  -3.28390756 -1.68739419 -2.34386368
H  -2.04901901  3.49910187  1.50817689
H  -0.48149666 -1.58501247 -3.45176026
H  -1.76478128 -0.50216055 -4.00228647
H  -1.24181976  3.29864100 -0.92738863
H  -3.23868804  5.67080742  0.55946355
H  -4.59306979  4.56878664  0.20400514
H  -2.28581468 -2.02062716 -5.54517819
H  -3.10791915 -2.83771172 -4.32397984
H  -3.14640987  4.67730283  2.78612698
H  -4.63410015  5.78968882  2.47763102
H  -0.35051799 -3.70560508 -4.81522190
H  -1.53032820 -4.64301580 -4.30707908
H   0.77009120  5.55406379 -1.14103946
H   0.98878220  3.24059052 -2.50276389
H  -1.23429602  6.30326283 -2.71824493
H  -4.42590500  1.77052314  4.48092425
H  -3.55483687  1.60256761  2.98964875
H  -3.01132890  2.90342316  4.11607934
H   1.56461241  5.74724572 -3.79250699
H   0.60566605  7.17046521 -3.98565731
H   0.36724452  5.69755916 -5.00163780
H  -0.80602022  4.00750326 -4.53727920
H  -1.83846303  3.84142046 -3.11863900
H  -2.29213856  6.17691191 -5.01879084
H  -2.75585550  4.49156459 -5.45492560
H  -3.47485221  5.12071926 -3.97303080
H   5.27767998 -1.53807746  0.71482845
H   4.65805516 -2.84446869  1.70741286
H   4.65881926 -0.33865699  3.27889140
H   5.98399297 -0.22043035  2.19806374
H   6.86195303 -2.44916553  2.83928801
H   7.06540381 -1.42249342  4.16482941
H   4.44335644 -2.42250241  4.30851397
H   7.65439376 -2.99907800  5.36467232
H   3.94363276 -4.10781831  5.52648664
H   4.99982478 -4.49514696  6.84360460
H   2.55042702  0.28447808 -2.23827724
H   2.35468329  1.85448513 -2.98145045
H   1.05474133  0.99168813 -2.51226724
