117
pH=7.04 total_charge=-2 partial_charge_sum=-2.000000 method=gasteiger energy=-581.44767350
N   2.27765783 -2.33459404  0.80539133
C   3.12988634 -1.29717176  1.16011102
C   3.29877438 -0.08456632  0.08054571
O   4.33288873 -0.05287467 -0.61393482
N   2.28714751  0.73826894 -0.07928696
C   2.39838306  1.64420979 -1.15629178
C   1.77814738 -2.75343043 -0.39639479
C   0.84662154 -3.98444086 -0.31241635
O   1.99055803 -2.09555693 -1.42697716
N  -0.38760721 -3.64835793  0.38699872
C   0.56164051 -4.70708493 -1.68138023
C  -0.57323551 -3.40136159  1.66045744
C   1.90920096 -5.22509527 -2.25554228
C  -1.89373658 -2.85559475  2.14732619
O   0.26354297 -3.62540882  2.60420334
C   1.86317050 -6.07183544 -3.58187013
N  -2.53892994 -2.13897264  1.06959100
C  -2.63609629 -4.25060107  2.40430969
O   0.76487836 -6.03807057 -4.31023477
O   2.94637612 -6.68649866 -3.82353691
C  -1.93199591 -1.13090180  0.62856364
C  -4.26389085 -4.22770231  2.39872518
C  -2.60608226 -0.31448764 -0.51677848
O  -0.85042143 -0.76377538  1.10826880
O  -4.94133756 -4.78798366  3.19441600
O  -4.75391858 -3.46528692  1.47193776
N  -2.46999193  1.12845286 -0.07422410
C  -1.89280666 -0.60034335 -1.81484669
C  -3.40504006  2.10509302 -0.05165340
C  -2.33301711 -1.79174859 -2.62810523
C  -2.81290037  3.42028398  0.74881017
O  -4.44499486  2.10334138 -0.66728308
C  -1.73955502 -2.00635891 -3.94859644
N  -1.64895205  3.68269051 -0.11936790
C  -3.86480193  4.51860660  0.95143922
C  -2.20916374 -3.37180214 -4.61553147
C  -0.87022542  4.73736788 -0.07062944
C  -4.41087140  4.76808939  2.32833626
N  -1.92290092 -4.60189219 -3.73211267
C   0.27133963  4.81633218 -1.13481141
O  -1.02333873  5.68411447  0.73481220
S  -5.40043766  3.36158152  2.95283628
N   0.81247120  3.52867126 -1.62981346
C  -0.20538539  5.75778150 -2.31005679
C  -4.28902269  2.08874063  3.27381886
C   1.69909446  2.93005388 -0.73597750
C   0.82568611  5.50353976 -3.47361993
C  -1.58961659  5.43202470 -2.70635605
O   1.92040577  3.35959933  0.39465920
C  -2.26968099  6.28362278 -3.70405921
C   4.49113227 -1.82992547  1.50400642
C   5.47120109 -0.74978351  1.88721915
C   6.52999460 -1.28543685  2.80655048
N   5.89595176 -1.45159893  4.15961951
C   6.50580219 -2.01659222  5.27905623
N   7.78068297 -2.17113363  5.49838964
N   5.50954743 -2.43799944  6.15638468
C   2.06815305  1.15829994 -2.54178165
H   1.94356404 -2.87609460  1.58066875
H   2.65762591 -0.86888655  1.98822358
H   1.39778837  0.37090044  0.24475151
H   3.52539389  1.86418590 -1.04381228
H   1.39991638 -4.70259030  0.20471060
H  -1.11748726 -3.48159602 -0.30688840
H   0.23531083 -3.95296936 -2.41371793
H  -0.21272143 -5.48687418 -1.67224331
H   2.65808833 -4.40691627 -2.41023176
H   2.45727763 -5.91306739 -1.54640446
H  -1.70719900 -2.32173306  3.02842948
H  -4.03932078 -2.79625238  1.16591102
H  -2.22709954 -4.98192885  1.60029644
H  -2.25764541 -4.84786386  3.29684758
H  -3.64530804 -0.41780356 -0.67183228
H  -1.83849946  1.16135685  0.73804101
H  -2.02347192  0.26404638 -2.45881049
H  -0.86356092 -0.80421780 -1.57457306
H  -2.16602654 -2.72022964 -2.12298201
H  -3.37371920 -1.83232507 -2.85893014
H  -2.35790094  3.17765390  1.66873811
H  -0.62008688 -2.05948346 -3.92930156
H  -1.95750038 -1.12105800 -4.54104865
H  -1.35853752  2.93346317 -0.63741679
H  -3.27993445  5.43094141  0.60912766
H  -4.59988676  4.32754839  0.19297647
H  -1.80666176 -3.46134990 -5.66475563
H  -3.29199823 -3.28404154 -4.68703501
H  -3.62323418  5.18360501  3.05167671
H  -5.13873885  5.52063196  2.09899499
H  -1.01118755 -4.91928185 -3.98170465
H  -2.47171269 -5.46150616 -4.21694088
H   1.03580678  5.37565564 -0.65522547
H   0.42646705  3.13964738 -2.45468989
H   0.07466212  6.81693068 -2.02426220
H  -4.56522925  1.65108094  4.30442507
H  -4.46638041  1.24917643  2.48027358
H  -3.29976221  2.43627453  3.33293061
H   1.78511083  5.80081782 -2.88401845
H   0.72286025  6.27715511 -4.18595110
H   0.85717180  4.56171809 -4.07211322
H  -1.52745193  4.49469069 -3.22406804
H  -2.28870719  5.21126113 -1.82178229
H  -1.58803769  6.59019670 -4.52057674
H  -3.20271295  5.84080511 -4.05060676
H  -2.54969610  7.19664481 -3.22129386
H   4.76396694 -2.22818083  0.59940817
H   4.36338849 -2.64874507  2.25233976
H   4.95851280  0.03579744  2.35125906
H   6.01397268 -0.40029665  1.04220721
H   6.88917868 -2.37915292  2.67537902
H   7.28284803 -0.47075129  2.81633606
H   4.93725090 -1.75558109  4.08838649
H   8.23978322 -1.76360205  4.77123719
H   4.58683157 -1.84517129  6.09755801
H   5.70697668 -2.56197699  7.18189733
H   2.66627139  0.21878523 -2.88458533
H   2.16258417  1.94396502 -3.32656990
H   1.00260936  0.89558574 -2.59370906
