117
pH=7.04 total_charge=-2 partial_charge_sum=-2.000000 method=gasteiger energy=-581.52579850
N   2.18638958 -2.09575002  0.97088238
C   3.26765492 -1.17180900  1.39073278
C   3.26979069  0.07410393  0.47781494
O   4.36389134  0.42405617 -0.03480665
N   2.21634442  0.86110623  0.24534087
C   2.15974561  1.80963346 -0.88313105
C   2.10424780 -2.53092136 -0.33062772
C   1.25504305 -3.84682035 -0.46865603
O   2.76305577 -1.95404233 -1.20249331
N  -0.09387162 -3.51149150  0.06312211
C   1.13180310 -4.63880090 -1.73454292
C  -0.39679644 -3.49739255  1.36501977
C   2.04145595 -5.86409644 -2.00869601
C  -1.83011232 -3.17804274  1.81507698
O   0.43020849 -3.80011114  2.25138435
C   1.76273091 -6.35841393 -3.40695376
N  -2.33354400 -2.15069069  0.96568183
C  -2.66760759 -4.37832589  1.81646248
O   1.12156317 -5.68472783 -4.27293111
O   2.27588128 -7.47720052 -3.57636016
C  -1.77190404 -0.97282840  0.71752291
C  -4.17353571 -4.09506826  2.25672154
C  -2.65067286  0.06807558 -0.09179390
O  -0.58225238 -0.71270933  0.94123444
O  -4.54673311 -4.71756274  3.31393673
O  -4.73615607 -3.24659851  1.62953706
N  -2.43691314  1.34847285  0.49530092
C  -2.12746733 -0.02202880 -1.48528640
C  -3.31371351  2.29226698  0.18088446
C  -2.19989118 -1.42948820 -2.15056481
C  -2.72279986  3.67142154  0.62362883
O  -4.19027881  2.13666860 -0.60483898
C  -1.58178174 -1.42719645 -3.53851211
N  -1.79624941  4.02583170 -0.49650539
C  -3.80356580  4.71023726  0.88272603
C  -2.07004268 -2.50705014 -4.55080494
C  -1.03852375  5.14809494 -0.59575515
C  -4.11992290  4.82548629  2.37595785
N  -1.36119645 -3.73346358 -4.77360755
C   0.02618031  4.93321688 -1.69443565
O  -1.15311856  6.24174458 -0.01523118
S  -5.14400084  3.45103761  2.97455846
N   0.53978212  3.53153378 -1.71961110
C  -0.50830207  5.56708364 -3.02857249
C  -3.86639023  2.40723457  3.66680948
C   1.15203285  2.95635334 -0.59303792
C   0.59999195  6.11435128 -3.99367418
C  -1.38340645  4.55730898 -3.79232607
O   0.98293716  3.54904403  0.42691259
C  -2.60363258  5.17102809 -4.60549883
C   4.70998642 -1.76518251  1.60585263
C   5.42809931 -0.96034623  2.69151939
C   6.26448941 -1.86392206  3.48901109
N   5.40168401 -2.62829858  4.37361470
C   5.83823626 -3.33705387  5.49565730
N   6.94731793 -3.37682072  6.04784433
N   4.66303695 -3.78376852  6.13472364
C   2.02850586  1.15753396 -2.27478492
H   1.85281511 -2.71133319  1.71292220
H   2.98785261 -0.83422605  2.36686719
H   1.28174281  0.47991191  0.51772462
H   3.08661761  2.41378513 -1.04674721
H   1.66191455 -4.47881736  0.32063323
H  -0.52971929 -2.86359992 -0.52984619
H   1.34356411 -4.01337897 -2.70329771
H   0.16129763 -5.02382363 -1.96419615
H   3.07915732 -5.81159596 -1.84448909
H   1.85489572 -6.62003158 -1.18972329
H  -1.67271634 -2.86327318  2.88574215
H  -3.29637274 -2.19479883  0.76863002
H  -2.61411042 -4.70018887  0.74607360
H  -2.07886953 -5.02512497  2.47022502
H  -3.70144627 -0.19490254 -0.10218181
H  -1.65015573  1.46671383  1.03914336
H  -2.57213437  0.75978994 -2.10605361
H  -1.10930949  0.15266461 -1.46596018
H  -1.70768918 -2.18665871 -1.56066043
H  -3.18741916 -1.79967002 -2.27274623
H  -2.08854453  3.62141424  1.44602044
H  -0.43174960 -1.50617625 -3.44901673
H  -1.62950685 -0.45472258 -3.99525873
H  -1.38359935  3.19155047 -0.95386557
H  -3.26244803  5.56214185  0.54723187
H  -4.68170760  4.68091470  0.22525570
H  -2.33872279 -1.90626310 -5.39331220
H  -3.11405492 -2.80983320 -4.25333932
H  -3.11098020  4.69866487  2.77002962
H  -4.62601659  5.78716135  2.55693874
H  -0.37706226 -3.72623579 -4.94803398
H  -1.52671887 -4.58248129 -4.22930288
H   0.84301738  5.58541564 -1.22315861
H   0.94204376  3.27616959 -2.68054941
H  -1.16222593  6.44329588 -2.76409832
H  -4.37949816  1.71232359  4.26821435
H  -3.46813759  1.60035081  3.00227924
H  -3.00071019  2.84447853  4.11172444
H   1.64743558  5.86519348 -3.82059285
H   0.50464506  7.24258192 -4.03327850
H   0.50893479  5.88556435 -5.05748363
H  -0.78737317  4.03247593 -4.51544116
H  -1.72412257  3.86497283 -2.99775080
H  -2.33159668  6.14753170 -5.02197867
H  -2.75049696  4.57994247 -5.52916061
H  -3.56238965  5.20748574 -4.10021753
H   5.28647807 -1.66266681  0.62942073
H   4.46835650 -2.87348355  1.65776033
H   4.68701308 -0.50811739  3.32636211
H   5.94544600 -0.14494694  2.12788171
H   6.77171710 -2.56587632  2.77144829
H   7.00295771 -1.42121011  4.12924442
H   4.40229907 -2.28979648  4.20060919
H   7.68680492 -3.05985936  5.43752789
H   3.90129867 -4.15711645  5.63223156
H   4.92714305 -4.41711654  6.88007621
H   2.60917902  0.12088714 -2.28350570
H   2.43434219  1.83119718 -3.10247351
H   0.89572741  0.96756761 -2.59022728
