117
pH=7.04 total_charge=-2 partial_charge_sum=-2.000000 method=gasteiger energy=-581.70548600
N   2.82026430 -2.53068187  0.71670975
C   3.50942122 -1.24716761  1.02601731
C   3.24604645 -0.15644209 -0.00577670
O   4.07192885  0.15495609 -0.82462585
N   2.11127424  0.53563337  0.08407969
C   1.93955159  1.51340183 -0.90831604
C   1.99795391 -2.72915987 -0.44723441
C   1.20821041 -4.13859448 -0.37622849
O   1.78496656 -1.93035433 -1.35008380
N  -0.09073735 -3.85250050  0.10392351
C   0.93351916 -4.87428915 -1.78676609
C  -0.37624540 -3.90920132  1.37768406
C   2.03540538 -5.39037936 -2.60770961
C  -1.90831306 -3.45208671  1.73179841
O   0.36929935 -4.36111470  2.23627506
C   1.70578626 -6.05257898 -3.92556935
N  -2.42136041 -2.58631552  0.66033818
C  -2.91584434 -4.57602738  1.88201127
O   0.53349824 -6.13145928 -4.36251108
O   2.76961211 -6.27010269 -4.54414150
C  -1.78032409 -1.44094681  0.38444694
C  -4.36875494 -3.85198147  2.13818249
C  -2.51814878 -0.43390282 -0.51025431
O  -0.71896763 -1.12123984  0.88881352
O  -5.09672882 -4.36689581  2.95301524
O  -4.64384720 -2.72767187  1.53669203
N  -2.37877926  0.95059159 -0.04917690
C  -2.17342776 -0.67250098 -2.00256697
C  -3.27559258  1.90791906  0.04537086
C  -2.35226931 -2.12233448 -2.54479236
C  -2.76626658  3.24755414  0.72852722
O  -4.35348187  1.87088403 -0.59335488
C  -2.00994171 -2.34947186 -4.07078393
N  -1.62567489  3.67777381 -0.08384666
C  -3.85010328  4.29358666  0.76489956
C  -2.75848629 -3.51291037 -4.66255471
C  -0.90671177  4.72956489  0.30032435
C  -4.47357639  4.55263579  2.05833369
N  -2.43026729 -4.74977109 -3.95882991
C   0.34841504  4.91431290 -0.42365118
O  -1.16844231  5.47442217  1.23133616
S  -5.64286782  3.20532078  2.55578916
N   1.02329692  3.76830838 -1.03426630
C   0.22739064  6.17336379 -1.49182545
C  -4.45825926  1.94066138  3.34575471
C   1.41792530  2.80617939 -0.17234380
C   1.50141885  6.45340180 -2.21177606
C  -0.96788810  5.69479379 -2.48890679
O   1.36586760  2.86872319  1.02089314
C  -1.92556186  6.83026082 -3.02168490
C   4.94930763 -1.57090778  1.22719799
C   5.76539372 -0.43177058  1.83789513
C   6.64382835 -0.94203643  2.92528844
N   5.77541577 -1.10684260  4.13249026
C   6.40858672 -1.44169747  5.24154155
N   7.62542498 -1.83283702  5.33236736
N   5.59241984 -1.57039761  6.35776256
C   1.43097142  1.17570273 -2.23684573
H   2.52033157 -3.08752074  1.53612000
H   3.25896451 -0.80944174  1.98409144
H   1.28614842  0.21633392  0.53705228
H   2.99697148  1.95021173 -1.08056290
H   1.63279239 -4.84994921  0.29245574
H  -0.88895813 -3.68293389 -0.56655514
H   0.40625970 -4.13546016 -2.40062344
H   0.12767750 -5.64449035 -1.57230859
H   2.67908054 -4.52760614 -2.86253547
H   2.78619951 -5.93743264 -2.01002725
H  -1.80924108 -2.89455011  2.65676409
H  -3.62506865 -2.66569330  0.85552742
H  -2.95085532 -5.13582929  0.88845166
H  -2.87355798 -5.33148457  2.66524944
H  -3.68327037 -0.60564793 -0.56617303
H  -1.78606890  1.06105893  0.76678891
H  -2.75922605  0.09571234 -2.57280913
H  -1.10617974 -0.25805111 -2.03886008
H  -1.78648598 -2.84667930 -1.90224242
H  -3.35503412 -2.41761587 -2.37232108
H  -2.38707953  3.02984551  1.76785596
H  -0.94819383 -2.39984265 -4.39988335
H  -2.28475317 -1.43546417 -4.67561781
H  -1.14527989  2.95384510 -0.61688217
H  -3.43190058  5.22498516  0.46666359
H  -4.57996573  4.16858968 -0.06802555
H  -2.53005261 -3.53691460 -5.76718540
H  -3.83594444 -3.26741504 -4.77622146
H  -3.83284822  4.75107913  2.91557112
H  -5.23979020  5.34252725  1.99105216
H  -1.43216451 -5.02524461 -4.13974672
H  -2.90367595 -5.57188091 -4.32360934
H   1.06044344  5.41143135  0.29964137
H   1.24854236  3.67360172 -2.00618536
H  -0.09258087  7.05517043 -0.99077091
H  -4.71866687  1.61044668  4.36763063
H  -4.28438587  1.06017366  2.74586920
H  -3.54595391  2.57869459  3.38321961
H   2.11916967  7.09238503 -1.67474564
H   1.41606341  6.74275151 -3.21658003
H   2.09055129  5.45425114 -2.26475874
H  -0.37408557  5.24469659 -3.30527695
H  -1.60281726  4.88956203 -2.08063508
H  -1.37963306  7.48619377 -3.67293758
H  -2.86141549  6.32277224 -3.37998400
H  -2.26217247  7.54642555 -2.28846011
H   5.32690993 -1.91864867  0.26516096
H   4.94866006 -2.50296517  1.88233435
H   5.07054980  0.34449772  2.07928300
H   6.24981086  0.16825918  1.07441807
H   7.09553893 -1.92404042  2.73319153
H   7.33993304 -0.15320315  3.16652741
H   4.96028477 -0.50310437  4.32096377
H   8.16368908 -1.69793882  4.42724445
H   4.62242155 -1.68627318  6.34020716
H   6.05337317 -1.47569193  7.20714555
H   1.94204064  0.24583475 -2.55854227
H   1.56972656  1.99640158 -2.96799419
H   0.35348740  0.76251249 -2.27364831
