117
pH=7.04 total_charge=-2 partial_charge_sum=-2.000000 method=gasteiger energy=-582.00236100
N   2.76359425 -2.65718868  0.32677082
C   3.40360884 -1.43887046  0.84437821
C   3.26818437 -0.33034394 -0.21670556
O   3.99662523 -0.32422747 -1.18561961
N   2.34006425  0.64578206  0.02812628
C   2.09183767  1.71821097 -0.88016474
C   1.68434062 -2.89459565 -0.52554141
C   1.11446065 -4.23109066 -0.52182537
O   1.39176238 -1.98951366 -1.33662777
N  -0.10800502 -4.20547992  0.18346745
C   0.96150099 -4.50210281 -2.02128381
C  -0.34154662 -4.13246840  1.52205156
C   2.22815590 -4.81593217 -2.75975817
C  -1.66209619 -3.50375938  1.93363795
O   0.45497258 -4.51738945  2.42566636
C   1.86080388 -5.69257320 -4.01731668
N  -2.10362401 -2.44870380  0.91139282
C  -2.84428696 -4.47869201  1.88254178
O   0.72672404 -5.40972403 -4.48799398
O   2.74011321 -6.55219355 -4.44593568
C  -1.68584712 -1.24477686  0.53911322
C  -4.29498649 -3.97558426  2.18241431
C  -2.56093819 -0.44635573 -0.40499705
O  -0.53792464 -0.78520544  0.81686290
O  -4.96181525 -4.62582516  2.91300788
O  -4.64389264 -2.93945077  1.49003610
N  -2.30399020  0.91068443  0.05482075
C  -2.39923719 -0.67247379 -1.95992580
C  -3.08389476  1.95492221 -0.25408501
C  -2.83388472 -2.07011139 -2.51474976
C  -2.76000395  3.15220433  0.62109299
O  -3.89487975  1.93940521 -1.11530927
C  -2.22217665 -2.39210245 -3.85197575
N  -1.63045146  3.75166705 -0.10472311
C  -3.91671580  4.17194246  0.49185722
C  -2.60491388 -3.77140170 -4.43267287
C  -0.80486908  4.68689610  0.48472420
C  -4.59294462  4.48499551  1.79878410
N  -2.27021901 -4.96555816 -3.71859988
C   0.40436582  5.13630464 -0.29015047
O  -1.09370368  5.37404940  1.41075561
S  -5.61308289  3.24652345  2.61431338
N   0.97028434  3.99938780 -0.97076110
C   0.12399224  6.25606623 -1.26838480
C  -4.40143693  2.12188626  3.24820892
C   1.28726471  2.85057961 -0.23875372
C   1.32318419  6.88006597 -1.83760663
C  -0.88878399  5.91636892 -2.38173747
O   0.80373314  2.78255078  0.91123759
C  -2.01676346  6.84062961 -2.35699142
C   4.85424444 -1.87000465  1.12043378
C   5.74010620 -0.64528678  1.60078339
C   6.48682904 -1.05324509  2.87966169
N   5.72548904 -1.23599714  4.11807924
C   6.32592254 -1.53861856  5.30723753
N   7.56600175 -1.52390119  5.53823144
N   5.40444620 -1.86571334  6.31869868
C   1.54219903  1.23409142 -2.21079763
H   2.93390505 -3.50435235  0.95032098
H   2.85333697 -1.01864810  1.65867531
H   1.57634501  0.27197506  0.59584714
H   3.20386251  2.04458881 -1.20583459
H   1.71936184 -4.97740590 -0.08403174
H  -0.79561398 -3.61795825 -0.30481442
H   0.42873394 -3.68541633 -2.52574611
H   0.36793244 -5.45608987 -2.20760728
H   2.92047019 -3.95660528 -3.09753897
H   2.93426260 -5.37275152 -2.22303974
H  -1.43549379 -3.04199639  2.87763670
H  -3.06764362 -2.67839843  0.59990064
H  -2.74976463 -4.91881233  0.86132722
H  -2.57995775 -5.27552590  2.56288533
H  -3.60402611 -0.58318672 -0.13076948
H  -1.63954001  0.96490067  0.84358916
H  -2.97153029  0.06225202 -2.50348184
H  -1.32106630 -0.55041846 -2.25578361
H  -2.52394609 -2.87351904 -1.83412612
H  -3.88203584 -2.13122840 -2.59469990
H  -2.33366712  2.96733683  1.60939887
H  -1.17283361 -2.19348997 -3.64030710
H  -2.34240153 -1.64237068 -4.66786047
H  -1.13213978  3.15454273 -0.78114574
H  -3.47372373  5.11623490  0.27269173
H  -4.53723285  3.95948972 -0.37854126
H  -2.06854665 -3.72957497 -5.42331798
H  -3.69637546 -3.88837817 -4.74010544
H  -3.81682935  4.86597439  2.39032259
H  -5.18585099  5.35821613  1.59353529
H  -1.36987951 -5.31442911 -4.04129726
H  -2.92643359 -5.64045870 -3.76280230
H   0.98490139  5.43494583  0.55073320
H   1.23717742  4.30610706 -1.87356849
H  -0.29561719  7.07842916 -0.73505499
H  -4.83442280  1.25582214  3.72488873
H  -3.71745954  1.70511181  2.52107041
H  -3.81682415  2.65374400  4.07094668
H   2.10577777  7.00192130 -1.18199641
H   1.13269695  7.80859234 -2.18089550
H   1.83477246  6.34715451 -2.63902428
H  -0.45310206  6.00910563 -3.39456984
H  -1.10700818  4.80230452 -2.26152563
H  -1.66763909  7.85624396 -2.17955462
H  -2.64049844  6.71154364 -3.29747011
H  -2.61788526  6.66657637 -1.46381435
H   5.23684452 -2.20788959  0.17572196
H   4.95166381 -2.69909487  1.84841758
H   5.25109928  0.32810534  1.95939865
H   6.36262121 -0.30569639  0.82625809
H   6.87735112 -2.06525702  2.69547448
H   7.26188700 -0.33936844  3.13789148
H   4.84928097 -1.68980382  3.93150926
H   8.14649442 -1.55204180  4.67507460
H   4.67404507 -1.20957406  6.36991202
H   5.93059124 -1.87423279  7.15563097
H   1.82300165  0.23873044 -2.45554692
H   1.79041660  1.84064657 -3.08785265
H   0.41896136  1.06026817 -2.30986190
