117
pH=7.04 total_charge=-2 partial_charge_sum=-2.000000 method=gasteiger energy=-581.65861100
N   2.36326639 -2.21237798  0.65061142
C   3.16882621 -1.16211828  1.22449804
C   3.42155972 -0.03998990  0.22525628
O   4.53084665  0.25484507 -0.20572855
N   2.29455258  0.70516595 -0.12721987
C   2.22520464  1.76051780 -1.12062053
C   2.13192021 -2.73032470 -0.60545824
C   1.08699196 -3.88739631 -0.38936963
O   2.56791686 -2.35737542 -1.67266018
N  -0.15918168 -3.46020802  0.20743213
C   0.81721587 -4.42943322 -1.80348064
C  -0.44806989 -3.54871766  1.56249081
C   1.96363219 -5.24871153 -2.43465121
C  -1.91725918 -3.23148117  1.81928165
O   0.46323302 -3.74747623  2.44975481
C   1.77350843 -6.19621766 -3.62083349
N  -2.40668606 -2.22534532  0.94165416
C  -2.86967909 -4.48180592  1.67532677
O   0.79157032 -5.90481552 -4.34100977
O   2.57476418 -7.11320671 -3.73702113
C  -1.82911467 -1.00224698  0.71186906
C  -4.29639512 -4.26957665  2.07470555
C  -2.77221790 -0.14756423 -0.26803658
O  -0.81888574 -0.55102038  1.20955990
O  -4.80273381 -5.23218213  2.64752483
O  -4.80803571 -3.14079653  1.69734930
N  -2.54686544  1.24265347  0.22615055
C  -2.33646768 -0.18717849 -1.76106036
C  -3.22084753  2.40249311 -0.02937594
C  -2.81894398 -1.49185612 -2.47809813
C  -2.57496570  3.65319160  0.65856387
O  -4.20749377  2.42882890 -0.74915275
C  -1.77492114 -1.77007540 -3.61972390
N  -1.58450325  4.06163160 -0.27048473
C  -3.60912483  4.67983202  1.09085419
C  -1.96524814 -2.90619940 -4.64142719
C  -0.80663424  5.12410446 -0.28909558
C  -4.05607542  4.81510080  2.47747044
N  -1.87648442 -4.26733207 -4.20803736
C   0.28129660  5.04146360 -1.45858344
O  -1.12547792  6.17248155  0.33041071
S  -5.15284435  3.35170891  3.12986584
N   0.66892328  3.69237937 -1.63784720
C  -0.35720965  5.65432163 -2.64752330
C  -3.84555160  2.42759807  3.93175716
C   1.43959761  3.04378689 -0.64101200
C   0.65988018  6.19355231 -3.70465790
C  -1.34734460  4.71458385 -3.30829346
O   1.44349004  3.52696047  0.47963198
C  -2.13659928  5.12318382 -4.52319331
C   4.44963227 -1.67305897  1.79337711
C   5.05397359 -0.69453011  2.83192418
C   6.14434055 -1.41402007  3.63797833
N   5.47582234 -2.19434682  4.69930129
C   6.08370663 -3.00535266  5.53863506
N   7.42001728 -3.29123514  5.68477020
N   5.27699305 -3.71572043  6.48100012
C   1.82899991  1.29685812 -2.51443392
H   1.72268349 -2.56087237  1.35953195
H   2.67266989 -0.81739662  2.07418564
H   1.37222164  0.26854561  0.14528164
H   3.35708379  2.10835390 -1.11855433
H   1.55924895 -4.70007464  0.12463826
H  -0.86357198 -3.50238225 -0.46023179
H   0.46347912 -3.56134745 -2.37410321
H  -0.05816931 -5.03735542 -1.62536152
H   2.59286867 -4.50005333 -2.79581245
H   2.61225659 -5.87802280 -1.66096659
H  -1.78513082 -2.78932451  2.86588499
H  -3.47230018 -2.28906278  1.05064929
H  -2.71483708 -4.88548537  0.65186957
H  -2.50343194 -5.21631639  2.46174011
H  -3.82958375 -0.32379417 -0.04290872
H  -1.78130806  1.30700383  0.94933914
H  -2.64483447  0.66138349 -2.33125601
H  -1.32293625 -0.10668393 -1.68284903
H  -2.98709722 -2.31098632 -1.74307990
H  -3.76173317 -1.28657302 -2.91158937
H  -1.97173210  3.28720185  1.54857101
H  -0.66147589 -1.86977153 -3.13655453
H  -1.70156728 -0.83353091 -4.05867270
H  -1.14063057  3.29754168 -0.83701103
H  -3.24514418  5.64896679  0.73478035
H  -4.49381104  4.56658874  0.48866096
H  -1.27747802 -2.96150059 -5.52380618
H  -3.01477589 -2.72932987 -5.09462753
H  -3.23119768  4.99171165  3.19752014
H  -4.65675675  5.71155395  2.58855902
H  -0.88520916 -4.75332106 -4.15172216
H  -2.31491601 -4.42903178 -3.28654749
H   1.07275888  5.66821762 -1.04146100
H   0.72155032  3.36026090 -2.57566030
H  -0.92715032  6.52134068 -2.21613933
H  -4.27572121  1.42343006  4.13522577
H  -3.14773642  2.37629661  3.11570688
H  -3.38812899  2.91562401  4.82806467
H   0.48751354  5.59483863 -4.65143583
H   1.77772751  6.15845997 -3.43914494
H   0.57623460  7.27835735 -3.89615625
H  -0.91212684  3.79864451 -3.59528788
H  -2.08390114  4.44420402 -2.60400205
H  -1.61345458  5.32275628 -5.44967435
H  -2.85598807  4.32264408 -4.71493755
H  -2.70694358  5.93297697 -4.44980236
H   5.28068127 -1.81558111  1.09732288
H   4.21874194 -2.71862274  2.12438399
H   4.24572315 -0.35677607  3.46121890
H   5.43812506  0.18432361  2.36893277
H   6.61920716 -1.87594818  2.83136939
H   6.83092444 -0.76242661  4.10368877
H   4.45661110 -2.29065707  4.67051534
H   7.84283128 -2.52414001  5.08145501
H   4.27642289 -3.76471625  6.39208599
H   5.80217040 -4.12184806  7.26888968
H   2.01840239  0.28600559 -2.66338117
H   2.50731639  1.82526653 -3.26955279
H   0.71498317  1.44245657 -2.66748808
