117
pH=7.04 total_charge=-2 partial_charge_sum=-2.000000 method=gasteiger energy=-580.79923600
N   2.04246462 -2.11006395  0.73368558
C   2.99568580 -1.10231227  1.07860303
C   3.27537578 -0.08361289  0.03059686
O   4.36004060  0.10452093 -0.42365246
N   2.24608804  0.70704470 -0.20367533
C   2.38234412  1.82900739 -1.18556131
C   1.70786220 -2.65623953 -0.51852412
C   0.89089969 -4.03985737 -0.35263721
O   1.90593260 -2.18561697 -1.61144974
N  -0.39242346 -3.78911239  0.27016573
C   0.68905058 -4.54333454 -1.78037994
C  -0.50767574 -3.45076110  1.57823859
C   1.98730457 -5.24119578 -2.33672434
C  -1.85571888 -2.92332103  2.00630711
O   0.38957430 -3.51536914  2.35017253
C   1.98374276 -6.07333261 -3.60810650
N  -2.62470525 -2.18247774  1.01709945
C  -2.67917297 -4.23445439  2.43963660
O   0.99502481 -5.88534688 -4.35213588
O   2.99917693 -6.72127528 -3.94993068
C  -1.97352865 -1.14355461  0.60781320
C  -4.31716009 -4.23393308  2.37828295
C  -2.69687661 -0.23794389 -0.41309892
O  -0.88619207 -0.67750571  0.92395032
O  -5.00363215 -5.06842760  2.99924629
O  -4.95539233 -3.48694208  1.55389195
N  -2.49157138  1.15432725  0.01922955
C  -1.85204768 -0.46915984 -1.71369503
C  -3.32854105  2.18067382 -0.05301689
C  -2.34496820 -1.74788014 -2.34537342
C  -2.71765038  3.39960518  0.68663742
O  -4.53564622  2.15697709 -0.43226440
C  -1.51389685 -2.07628358 -3.65885186
N  -1.54865677  3.78035749 -0.07634822
C  -3.63843069  4.53963030  0.86937718
C  -1.98757276 -3.17816595 -4.59659025
C  -0.82615450  4.88023627 -0.08783315
C  -4.06290750  4.66844718  2.32497093
N  -2.21306371 -4.46785545 -4.03897117
C   0.21551879  4.95063675 -1.23766467
O  -0.82697360  5.75413237  0.72902689
S  -5.17080561  3.41992035  2.97097083
N   0.65130236  3.52783130 -1.46958082
C  -0.27565465  5.66608086 -2.47708547
C  -4.07246633  2.08471341  3.48933494
C   1.52576707  3.01761170 -0.58704794
C   0.73453172  5.57143730 -3.60144784
C  -1.63331082  5.01726756 -2.81130876
O   1.70045021  3.48114644  0.49869802
C  -2.32018149  5.98087458 -3.79628184
C   4.28061502 -1.80727241  1.56541662
C   5.35993271 -0.73424920  2.02388827
C   6.43206320 -1.21206898  3.16312414
N   5.75279704 -1.78656637  4.38881444
C   6.39270117 -2.37476762  5.43369187
N   7.64212756 -2.20037859  5.60770702
N   5.52599527 -3.10712027  6.29025025
C   2.17734574  1.26370115 -2.65397112
H   1.70995633 -2.61503284  1.51401707
H   2.57308525 -0.53671280  1.92459209
H   1.32827395  0.33404132  0.00214678
H   3.44230279  2.03189611 -1.09209724
H   1.58828521 -4.78256426  0.16762215
H  -1.17284773 -3.95330934 -0.47232676
H   0.33046028 -3.64704281 -2.34375979
H  -0.18751047 -5.17400876 -1.76775484
H   2.62981778 -4.39749942 -2.66647924
H   2.56684687 -5.64582768 -1.52343750
H  -1.51751622 -2.35943016  2.85687458
H  -4.30513580 -2.89173048  1.08194549
H  -2.36695146 -5.15042658  1.89068861
H  -2.33306108 -4.40899090  3.38115112
H  -3.81534425 -0.32908791 -0.63257174
H  -1.73211060  1.18382606  0.75472431
H  -1.91492632  0.32745964 -2.47264629
H  -0.83471459 -0.62237242 -1.33291245
H  -2.58592366 -2.67365215 -1.78964166
H  -3.44246329 -1.71356794 -2.81048061
H  -2.28798179  2.94367675  1.59413901
H  -0.48546715 -2.27892652 -3.47362589
H  -1.57146148 -1.20168570 -4.32745065
H  -1.29856265  3.18635095 -0.90452499
H  -3.27974605  5.40553616  0.45294538
H  -4.47582984  4.18789718  0.26639256
H  -1.52093065 -3.26766213 -5.53784538
H  -2.97180631 -2.70665976 -4.93781858
H  -3.19042816  4.72669001  2.88327548
H  -4.58598238  5.66511349  2.44550474
H  -1.57765283 -5.24094048 -4.33903912
H  -2.92534769 -4.59558106 -3.39090406
H   1.05932573  5.61121639 -0.90088967
H   0.81272677  3.20842722 -2.40281690
H  -0.42542402  6.67469695 -2.25492603
H  -4.63483695  1.64162116  4.27464177
H  -3.76975144  1.43662916  2.68020793
H  -3.19023177  2.66028765  3.90407566
H   1.30439630  4.66165599 -3.62561366
H   1.46259589  6.35498252 -3.79761599
H   0.11097652  5.54904905 -4.49263421
H  -1.70094262  4.02116016 -3.36245156
H  -2.26060182  4.92657602 -1.92642152
H  -1.95572169  5.87743616 -4.75633479
H  -3.37490997  5.74518636 -3.77185950
H  -2.06694547  7.14512619 -3.66428478
H   4.72075945 -2.57043297  0.90905459
H   4.02447957 -2.35618077  2.45249175
H   4.76688626  0.25138655  2.14808823
H   6.05284947 -0.52248610  1.19862968
H   7.04406547 -1.95573169  2.77624999
H   7.03338817 -0.31149542  3.22163139
H   4.88067690 -2.23282182  4.16722018
H   8.08356121 -1.48746673  5.04892374
H   4.74735246 -2.59367801  6.58647342
H   6.07567369 -3.37303146  7.06408510
H   2.70663310  0.30917994 -2.53204096
H   2.51621046  1.87666436 -3.49196793
H   1.17193328  0.95609597 -2.84694812
