117
pH=7.04 total_charge=-2 partial_charge_sum=-2.000000 method=gasteiger energy=-580.83048600
N   2.21029224 -2.23683655  0.66795995
C   3.16845207 -1.19299089  1.09196266
C   3.43692909 -0.05140447  0.09650836
O   4.57036799  0.22049836 -0.23421413
N   2.29761895  0.62104432 -0.16470918
C   2.29440328  1.67613206 -1.21032482
C   2.05635673 -2.73163314 -0.57951841
C   1.10672401 -3.93435368 -0.48625462
O   2.48514161 -2.28036114 -1.58339272
N  -0.13930821 -3.41348260  0.21151185
C   0.79487207 -4.55219310 -1.83039340
C  -0.43153070 -3.38263101  1.46823534
C   2.10561664 -5.13165785 -2.41517229
C  -1.81145195 -3.16914166  1.88917506
O   0.38568532 -3.70593721  2.38458084
C   1.77446864 -6.06303261 -3.62721060
N  -2.40888265 -2.22169648  0.84132878
C  -2.56126354 -4.43832139  1.78066977
O   0.73357498 -5.88263279 -4.38272075
O   2.62649628 -6.99133006 -3.71087117
C  -2.00283144 -0.99539746  0.63437697
C  -4.33010653 -4.23656522  2.04617735
C  -2.78257587 -0.07095483 -0.26205183
O  -0.94806952 -0.51299124  1.15221136
O  -4.85949722 -5.18451617  2.54167753
O  -4.89026344 -3.16463084  1.72350301
N  -2.44898688  1.21973067  0.26178974
C  -2.37536782 -0.23423599 -1.73631306
C  -3.23211688  2.27081530  0.09334605
C  -2.78362140 -1.50542074 -2.40591241
C  -2.57365908  3.53168212  0.73852689
O  -4.21098275  2.37719899 -0.64907060
C  -1.81091449 -1.77955615 -3.53536709
N  -1.56488423  3.97493907 -0.24010752
C  -3.58572739  4.65054392  0.95245536
C  -1.98307118 -2.89414586 -4.58294159
C  -0.84946468  5.14621803 -0.23384739
C  -4.09106849  4.72481156  2.54991278
N  -2.02619402 -4.34454134 -4.20278125
C   0.26686082  5.09894876 -1.25992252
O  -1.09880330  6.15598302  0.48181328
S  -5.11195768  3.39772525  3.13159038
N   0.71407561  3.63662988 -1.60052597
C  -0.33773533  5.69540663 -2.68042791
C  -3.83402391  2.32759599  3.85219266
C   1.54276544  3.04810104 -0.74207921
C   0.71494927  6.15281199 -3.69899685
C  -1.48586381  4.75813074 -3.21721962
O   1.51997957  3.48755934  0.40833771
C  -2.26542177  5.14967257 -4.53274358
C   4.44980339 -1.66255693  1.83057718
C   4.90874954 -0.64545149  2.85609371
C   6.11036289 -1.39198658  3.57075858
N   5.56538480 -2.16978913  4.67657074
C   6.17994443 -3.02535009  5.61705020
N   7.45813848 -3.15190859  5.67211334
N   5.34851409 -3.69910206  6.43308533
C   1.88882695  1.17888983 -2.64184581
H   1.68398363 -2.62930136  1.42634756
H   2.57564145 -0.63465511  1.85369782
H   1.52632098  0.51884156  0.41460809
H   3.29812738  1.94053691 -1.33298111
H   1.40978486 -4.61316827  0.31466562
H  -0.85769286 -2.94549298 -0.41292218
H   0.44304535 -3.82490198 -2.52057378
H   0.06467113 -5.48395019 -1.82853123
H   2.94275274 -4.42284295 -2.62083211
H   2.39267957 -5.77899174 -1.68772778
H  -1.95361945 -2.73457616  2.87727893
H  -3.39026864 -2.45079794  0.67247270
H  -2.54119445 -4.93316236  0.81663968
H  -2.23261007 -5.21289825  2.42411108
H  -3.82060006 -0.41427022 -0.28240300
H  -1.69665213  1.21908349  0.86858195
H  -2.89530615  0.62034016 -2.14085013
H  -1.22599619 -0.24974399 -1.93424840
H  -2.53827417 -2.31455755 -1.78521641
H  -3.86229348 -1.59281800 -2.59247762
H  -2.16404412  3.16728249  1.73264288
H  -0.99365313 -1.99306176 -2.89403328
H  -1.47003584 -0.92640126 -4.19018083
H  -1.04884875  3.23840901 -0.61350914
H  -3.26006614  5.60396517  0.65336575
H  -4.50304817  4.32114826  0.49767930
H  -1.07030481 -2.64582500 -5.16255486
H  -2.87245510 -2.65956238 -5.26096701
H  -3.28251009  4.90714299  3.25072772
H  -4.73572778  5.60292749  2.62886366
H  -1.15165533 -4.74342996 -4.03724655
H  -2.51545147 -4.55781638 -3.33300196
H   1.15117335  5.64623765 -1.02841074
H   0.63824073  3.31643057 -2.54331353
H  -0.81104313  6.61014126 -2.41539776
H  -4.17523176  1.27736714  4.03881555
H  -2.86817951  2.29500535  3.28851909
H  -3.62921579  2.66550486  4.81624602
H   0.73042230  5.69592904 -4.66902818
H   1.70756184  5.93837816 -3.39725080
H   0.53969268  7.20368035 -3.68237632
H  -1.02563101  3.73965180 -3.29996182
H  -2.19415217  4.57526408 -2.39261098
H  -1.55756221  5.22596419 -5.37295745
H  -2.99806501  4.36111119 -4.72218964
H  -2.71623730  6.22845879 -4.35571606
H   5.14291682 -1.97880653  1.04263990
H   4.19421665 -2.57676098  2.40159591
H   4.16613769 -0.43357811  3.67602009
H   5.32086181  0.24492261  2.46209006
H   6.60845625 -2.14154996  2.97747874
H   6.86401275 -0.57750684  3.87601171
H   4.61174404 -2.40217693  4.41325000
H   7.98387339 -2.77430310  4.90293960
H   4.38120108 -3.41737958  6.42981018
H   5.76330153 -3.84779543  7.33767504
H   2.33298688  0.14451162 -2.73526792
H   2.52746931  1.84758284 -3.38759948
H   0.87087283  1.31555177 -2.91778156
