117
pH=7.04 total_charge=-2 partial_charge_sum=-2.000000 method=gasteiger energy=-583.36954850
N   2.71437066 -2.81564609 -0.04411136 -0.34252011
C   2.93802140 -1.46675562  0.49017244  0.10780143
C   2.83127792 -0.43814793 -0.60907364  0.24271807
O   3.62324172 -0.48442573 -1.58968220 -0.27270483
N   1.83294245  0.59071000 -0.52894476 -0.34280667
C   1.78925405  1.73809287 -1.44133441  0.10493525
C   1.43425375 -3.21543532 -0.55168104  0.24273980
C   0.96266477 -4.63848168 -0.40864208  0.10809488
O   0.68185326 -2.36817597 -1.10260074 -0.27270442
N  -0.34604743 -4.63947505  0.25413151 -0.34249722
C   0.86587532 -5.32785403 -1.78212680 -0.01843864
C  -0.48874608 -4.24849196  1.62846300  0.24311949
C   2.23974203 -5.50598562 -2.44125871 -0.01066978
C  -1.82751785 -3.82161031  2.17399909  0.11292992
O   0.51527870 -4.25052202  2.39220031 -0.27268997
C   2.10344960 -6.21512692 -3.75199659  0.04147744
N  -2.43283907 -2.80336457  1.30402835 -0.34214915
C  -2.74784501 -5.04661136  2.32178749  0.01638015
O   1.79628446 -5.57210883 -4.79011515 -0.55017023
O   2.27294946 -7.59228011 -3.82002614 -0.55017023
C  -1.82961122 -1.51643812  1.09261098  0.24273752
C  -3.99758058 -4.70206957  3.07270203  0.04396453
C  -2.53645032 -0.47199869  0.25412257  0.10773706
O  -0.68250091 -1.27714894  1.56052089 -0.27270447
O  -3.96827528 -4.58006710  4.32543185 -0.55007235
O  -5.19078565 -4.50267276  2.38932957 -0.55007235
N  -2.24463408  0.88093445  0.75153263 -0.34252104
C  -2.12446258 -0.58513854 -1.22798610 -0.02362617
C  -3.01594039  2.02821762  0.36127886  0.24275858
C  -2.64883555 -1.86559065 -1.89620456 -0.04963444
C  -2.61516238  3.40120646  0.84801062  0.10851982
O  -3.97630480  1.89932554 -0.44710240 -0.27270406
C  -2.35755910 -1.86041465 -3.40446347 -0.04080171
N  -1.64009482  3.97549655 -0.08531054 -0.34248039
C  -3.82378225  4.35481492  1.01437165 -0.01455658
C  -2.97534906 -3.07295130 -4.10946494 -0.00772601
C  -0.68212636  4.96756085  0.32216573  0.24300508
C  -4.62547036  4.10922394  2.30167961 -0.00456056
N  -2.29493240 -4.30262306 -3.71521745 -0.33047349
C   0.48600057  5.33742500 -0.56295690  0.11027059
O  -0.81031773  5.54744545  1.43502264 -0.27269245
S  -5.64952685  2.59390799  2.19960013 -0.16533851
N   0.96182207  4.17019352 -1.32162651 -0.34227144
C   0.16053680  6.55660988 -1.47763755 -0.01502635
C  -4.74263039  1.66044237  3.47607977 -0.01839860
C   1.47641149  2.99915287 -0.66433640  0.24244884
C   1.43686568  7.05598522 -2.17881800 -0.06003759
C  -0.96741207  6.29167502 -2.51767929 -0.05109903
O   1.73046439  3.04160894  0.57128269 -0.27271678
C  -2.33317106  6.79000862 -2.04295248 -0.06503680
C   4.30616816 -1.38395385  1.19604422 -0.02200003
C   4.49768761 -0.04495974  1.93202450 -0.03322052
C   5.82998887  0.00770931  2.69225378  0.01754934
N   5.81918207 -0.87182500  3.86442535 -0.35676175
C   6.95066813 -1.04029633  4.73626058  0.18520503
N   8.05079785 -0.37595598  4.55757561 -0.26962207
N   6.86633262 -1.96223248  5.82363037 -0.37016044
C   0.75069872  1.46445242 -2.53488040 -0.03562112
H   3.43209942 -3.55908332  0.11410194  0.16388060
H   2.15327639 -1.27137439  1.25443738  0.06321531
H   1.05033665  0.47211672  0.15441178  0.16386780
H   2.78188340  1.87993148 -1.92143509  0.06291557
H   1.67800476 -5.21511484  0.21913317  0.06322704
H  -1.21086121 -4.77271696 -0.31845153  0.16388103
H   0.20821249 -4.73181187 -2.45036513  0.02967971
H   0.40023526 -6.32920314 -1.64596096  0.02967971
H   2.71344189 -4.51579188 -2.61407115  0.03294112
H   2.90405868 -6.09664018 -1.77463405  0.03294112
H  -1.67210612 -3.37623709  3.18330754  0.06361838
H  -3.34817197 -3.00121473  0.83970976  0.16389449
H  -3.01597459 -5.44753835  1.32032495  0.03552710
H  -2.21637480 -5.85055052  2.87648537  0.03552710
H  -3.63239307 -0.64223140  0.34400874  0.06321414
H  -1.43714192  1.03903958  1.39568743  0.16388059
H  -2.52722235  0.28593842 -1.78655787  0.02929700
H  -1.02018060 -0.54248274 -1.30954089  0.02929700
H  -2.16314032 -2.75124519 -1.43598167  0.02679166
H  -3.74703061 -1.93783281 -1.73579575  0.02679166
H  -2.12195453  3.27916854  1.83820250  0.06324568
H  -1.25892872 -1.84456985 -3.57739772  0.02794783
H  -2.78914692 -0.94096398 -3.85782070  0.02794783
H  -1.60571203  3.61773272 -1.06692668  0.16388138
H  -3.44759640  5.39890531  1.06848717  0.03014509
H  -4.49345595  4.31162600  0.12740753  0.03014509
H  -2.89380163 -2.93681921 -5.21093210  0.04254920
H  -4.05653909 -3.14459816 -3.85636798  0.04254920
H  -3.94761267  4.10337931  3.18258535  0.03810564
H  -5.32342918  4.96137952  2.44215690  0.03810564
H  -1.37000341 -4.32730342 -4.20208841  0.11837913
H  -2.84612239 -5.10730145 -4.09215233  0.11837913
H   1.31167742  5.65336991  0.11389401  0.06350405
H   0.96949110  4.19875098 -2.36423123  0.16389184
H  -0.15495349  7.39164807 -0.81093362  0.03262469
H  -5.16604947  0.63789406  3.54649894  0.03438018
H  -3.66745462  1.58544318  3.21140034  0.03438018
H  -4.85151675  2.16378050  4.45967983  0.03438018
H   2.24178926  7.24241198 -1.43718524  0.02340918
H   1.23276817  8.01526503 -2.70234458  0.02340918
H   1.80032060  6.31777854 -2.92425415  0.02340918
H  -0.74586516  6.82004597 -3.47148878  0.02673565
H  -1.04625728  5.21414874 -2.76716306  0.02673565
H  -2.29856384  7.88258306 -1.84726281  0.02304679
H  -3.09222195  6.59819031 -2.83051211  0.02304679
H  -2.64924070  6.26741944 -1.11991473  0.02304679
H   5.12200777 -1.52496481  0.45314776  0.02936247
H   4.37213900 -2.21480520  1.93134627  0.02936247
H   3.65845436  0.12578197  2.64200886  0.02854852
H   4.48840177  0.78475565  1.19232802  0.02854852
H   6.65795335 -0.28398555  2.01034307  0.04911505
H   6.00161710  1.05308539  3.02766956  0.04911505
H   4.94857018 -1.40216819  4.09781564  0.16307669
H   8.18817716  0.31606774  3.78851842  0.19098667
H   6.00048216 -2.52518852  5.97763369  0.15924722
H   7.67391195 -2.09298871  6.47286951  0.15924722
H   0.86993477  0.43132899 -2.92512574  0.02566879
H   0.88704926  2.16020400 -3.38849499  0.02566879
H  -0.27844354  1.58219144 -2.13471863  0.02566879
