      -----------------------------------------------------------      
     |                   =====================                   |     
     |                           x T B                           |     
     |                   =====================                   |     
     |                         S. Grimme                         |     
     |          Mulliken Center for Theoretical Chemistry        |     
     |                    University of Bonn                     |     
      -----------------------------------------------------------      

   * xtb version 6.7.1 (edcfbbe) compiled by 'albert@albert-system' on 2024-07-22

   xtb is free software: you can redistribute it and/or modify it under
   the terms of the GNU Lesser General Public License as published by
   the Free Software Foundation, either version 3 of the License, or
   (at your option) any later version.
   
   xtb is distributed in the hope that it will be useful,
   but WITHOUT ANY WARRANTY; without even the implied warranty of
   MERCHANTABILITY or FITNESS FOR A PARTICULAR PURPOSE.  See the
   GNU Lesser General Public License for more details.
   
   Cite this work as:
   * C. Bannwarth, E. Caldeweyher, S. Ehlert, A. Hansen, P. Pracht,
     J. Seibert, S. Spicher, S. Grimme, WIREs Comput. Mol. Sci., 2020, 11,
     e01493. DOI: 10.1002/wcms.1493
   
   for GFN2-xTB:
   * C. Bannwarth, S. Ehlert and S. Grimme., J. Chem. Theory Comput., 2019,
     15, 1652-1671. DOI: 10.1021/acs.jctc.8b01176
   for GFN1-xTB:
   * S. Grimme, C. Bannwarth, P. Shushkov, J. Chem. Theory Comput., 2017,
     13, 1989-2009. DOI: 10.1021/acs.jctc.7b00118
   for GFN0-xTB:
   * P. Pracht, E. Caldeweyher, S. Ehlert, S. Grimme, ChemRxiv, 2019, preprint.
     DOI: 10.26434/chemrxiv.8326202.v1
   for GFN-FF:
   * S. Spicher and S. Grimme, Angew. Chem. Int. Ed., 2020, 59, 15665-15673.
     DOI: 10.1002/anie.202004239
   
   for ALPB and GBSA implicit solvation:
   * S. Ehlert, M. Stahn, S. Spicher, S. Grimme, J. Chem. Theory Comput.,
     2021, 17, 4250-4261. DOI: 10.1021/acs.jctc.1c00471
   
   for ddCOSMO and CPCM-X implicit solvation:
   * M. Stahn, S. Ehlert, S. Grimme, J. Phys. Chem. A,
     2023, XX, XXXX-XXXX. DOI: 10.1021/acs.jpca.3c04382
   
   for DFT-D4:
   * E. Caldeweyher, C. Bannwarth and S. Grimme, J. Chem. Phys., 2017,
     147, 034112. DOI: 10.1063/1.4993215
   * E. Caldeweyher, S. Ehlert, A. Hansen, H. Neugebauer, S. Spicher,
     C. Bannwarth and S. Grimme, J. Chem. Phys., 2019, 150, 154122.
     DOI: 10.1063/1.5090222
   * E. Caldeweyher, J.-M. Mewes, S. Ehlert and S. Grimme, Phys. Chem. Chem. Phys.
     2020, 22, 8499-8512. DOI: 10.1039/D0CP00502A
   
   for sTDA-xTB:
   * S. Grimme and C. Bannwarth, J. Chem. Phys., 2016, 145, 054103.
     DOI: 10.1063/1.4959605
   
   in the mass-spec context:
   * V. Asgeirsson, C. Bauer and S. Grimme, Chem. Sci., 2017, 8, 4879.
     DOI: 10.1039/c7sc00601b
   * J. Koopman and S. Grimme, ACS Omega 2019, 4, 12, 15120-15133.
     DOI: 10.1021/acsomega.9b02011
   
   for metadynamics refer to:
   * S. Grimme, J. Chem. Theory Comput., 2019, 155, 2847-2862
     DOI: 10.1021/acs.jctc.9b00143
   
   for SPH calculations refer to:
   * S. Spicher and S. Grimme, J. Chem. Theory Comput., 2021, 17, 1701-1714
     DOI: 10.1021/acs.jctc.0c01306
   
   for ONIOM refer to:
   * C. Plett, A. Katbashev, S. Ehlert, S. Grimme, M. Bursch,
     Phys. Chem. Chem. Phys., 2023, 25, 17860-17868. DOI: 10.1039/D3CP02178E
   
   for DIPRO refer to:
   * J. Kohn, N. Gildemeister, S. Grimme, D. Fazzi, A. Hansen,
     J. Chem. Phys., 2023, just accepted.
   
   for PTB refer to:
   * S. Grimme, M. Mueller, A. Hansen, J. Chem. Phys., 2023, 158, 124111.
     DOI: 10.1063/5.0137838
   
   with help from (in alphabetical order)
   P. Atkinson, C. Bannwarth, F. Bohle, G. Brandenburg, E. Caldeweyher
   M. Checinski, S. Dohm, S. Ehlert, S. Ehrlich, I. Gerasimov, C. Hölzer
   A. Katbashev, J. Kohn, J. Koopman, C. Lavigne, S. Lehtola, F. März, M. Müller,
   F. Musil, H. Neugebauer, J. Pisarek, C. Plett, P. Pracht, F. Pultar,
   J. Seibert, P. Shushkov, S. Spicher, M. Stahn, M. Steiner, T. Strunk,
   J. Stückrath, T. Rose, and J. Unsleber
   
 * started run on 2026/05/23 at 12:33:40.845     
   ID    Z sym.   atoms
    1    7 N      1, 5, 10, 17, 27, 34, 39, 43, 54, 56, 57
    2    6 C      2, 3, 6-8, 11-14, 16, 18, 21-23, 28-31, 33, 35-38, 40,
                  44-48, 50-53, 55, 58
    3    8 O      4, 9, 15, 19, 20, 24-26, 32, 41, 49
    4   16 S      42
    5    1 H      59-117

           -------------------------------------------------
          |                Calculation Setup                |
           -------------------------------------------------

          program call               : /home/xchen/software/xtb-6.7.1/xtb-dist/bin/xtb /home/xchen/Test/benchmark/md_sampled/04_7_0231_n2/snap_0038.xyz --charge -2 --gfn 2 --norestart
          coordinate file            : /home/xchen/Test/benchmark/md_sampled/04_7_0231_n2/snap_0038.xyz
          omp threads                :                    48


           -------------------------------------------------
          |                 G F N 2 - x T B                 |
           -------------------------------------------------

        Reference                      10.1021/acs.jctc.8b01176
      * Hamiltonian:
        H0-scaling (s, p, d)           1.850000    2.230000    2.230000
        zeta-weighting                 0.500000
      * Dispersion:
        s8                             2.700000
        a1                             0.520000
        a2                             5.000000
        s9                             5.000000
      * Repulsion:
        kExp                           1.500000    1.000000
        rExp                           1.000000
      * Coulomb:
        alpha                          2.000000
        third order                    shell-resolved
        anisotropic                    true
        a3                             3.000000
        a5                             4.000000
        cn-shift                       1.200000
        cn-exp                         4.000000
        max-rad                        5.000000


          ...................................................
          :                      SETUP                      :
          :.................................................:
          :  # basis functions                 297          :
          :  # atomic orbitals                 296          :
          :  # shells                          176          :
          :  # electrons                       328          :
          :  max. iterations                   250          :
          :  Hamiltonian                  GFN2-xTB          :
          :  restarted?                      false          :
          :  GBSA solvation                  false          :
          :  PC potential                    false          :
          :  electronic temp.          300.0000000     K    :
          :  accuracy                    1.0000000          :
          :  -> integral cutoff          0.2500000E+02      :
          :  -> integral neglect         0.1000000E-07      :
          :  -> SCF convergence          0.1000000E-05 Eh   :
          :  -> wf. convergence          0.1000000E-03 e    :
          :  Broyden damping             0.4000000          :
          :  net charge                         -2          :
          :  unpaired electrons                  0          :
          ...................................................

 iter      E             dE          RMSdq      gap      omega  full diag
   1   -186.9790550 -0.186979E+03  0.418E+00    3.66       0.0  T
   2   -187.4681619 -0.489107E+00  0.217E+00    2.07       1.0  T
   3   -187.4956920 -0.275301E-01  0.119E+00    0.92       1.0  T
   4   -184.6232729  0.287242E+01  0.326E+00    0.04       1.0  T
   5   -187.5059908 -0.288272E+01  0.238E-01    0.26       1.0  T
   6   -187.5084833 -0.249245E-02  0.116E-01    0.21       1.0  T
   7   -187.5080383  0.445006E-03  0.752E-02    0.33       1.0  T
   8   -187.5081594 -0.121127E-03  0.595E-02    0.33       1.0  T
   9   -187.5081856 -0.262358E-04  0.551E-02    0.33       1.0  T
  10   -187.5082324 -0.467227E-04  0.516E-02    0.31       1.0  T
  11   -187.5082880 -0.556559E-04  0.483E-02    0.30       1.0  T
  12   -187.5083447 -0.567273E-04  0.451E-02    0.29       1.0  T
  13   -187.5083487 -0.398988E-05  0.449E-02    0.29       1.0  T
  14   -187.5083693 -0.206101E-04  0.437E-02    0.28       1.0  T
  15   -187.5087677 -0.398370E-03  0.136E-02    0.21       1.0  T
  16   -187.5087623  0.536288E-05  0.147E-02    0.21       1.0  T
  17   -187.5087601  0.221378E-05  0.152E-02    0.21       1.0  T
  18   -187.5087062  0.539228E-04  0.229E-02    0.18       1.0  T
  19   -187.5087950 -0.887563E-04  0.483E-03    0.20       1.9  T
  20   -187.5087876  0.737844E-05  0.793E-03    0.19       1.2  T
  21   -187.5087990 -0.113668E-04  0.276E-03    0.20       3.3  T
  22   -187.5088005 -0.149963E-05  0.928E-04    0.20      10.0  T
  23   -187.5088006 -0.110890E-06  0.530E-04    0.20      17.4  T
  24   -187.5088006 -0.529682E-07  0.351E-05    0.20     263.4  T

   *** convergence criteria satisfied after 24 iterations ***

         #    Occupation            Energy/Eh            Energy/eV
      -------------------------------------------------------------
         1        2.0000           -0.5988084             -16.2944
       ...           ...                  ...                  ...
       158        2.0000           -0.2157913              -5.8720
       159        2.0000           -0.2077051              -5.6519
       160        2.0000           -0.1973260              -5.3695
       161        2.0000           -0.1689508              -4.5974
       162        2.0000           -0.1571962              -4.2775
       163        1.9999           -0.1423062              -3.8724
       164        1.9583           -0.1365984              -3.7170 (HOMO)
       165        0.0418           -0.1292887              -3.5181 (LUMO)
       166        0.0000           -0.1193123              -3.2467
       167                         -0.0926200              -2.5203
       168                         -0.0890058              -2.4220
       169                         -0.0867719              -2.3612
       ...                                ...                  ...
       296                          0.8044696              21.8907
      -------------------------------------------------------------
                  HL-Gap            0.0073097 Eh            0.1989 eV
             Fermi-level           -0.1329424 Eh           -3.6175 eV

 SCC (total)                   0 d,  0 h,  0 min, 36.630 sec
 SCC setup                      ...        0 min,  0.040 sec (  0.108%)
 Dispersion                     ...        0 min,  0.150 sec (  0.411%)
 classical contributions        ...        0 min,  0.071 sec (  0.194%)
 integral evaluation            ...        0 min,  0.421 sec (  1.148%)
 iterations                     ...        0 min, 34.897 sec ( 95.269%)
 molecular gradient             ...        0 min,  1.029 sec (  2.808%)
 printout                       ...        0 min,  0.022 sec (  0.061%)

         :::::::::::::::::::::::::::::::::::::::::::::::::::::
         ::                     SUMMARY                     ::
         :::::::::::::::::::::::::::::::::::::::::::::::::::::
         :: total energy            -185.531335050420 Eh    ::
         :: gradient norm              0.351055309161 Eh/a0 ::
         :: HOMO-LUMO gap              0.198906647957 eV    ::
         ::.................................................::
         :: SCC energy              -187.502556240405 Eh    ::
         :: -> isotropic ES            0.720415698768 Eh    ::
         :: -> anisotropic ES          0.014127914521 Eh    ::
         :: -> anisotropic XC          0.062897321214 Eh    ::
         :: -> dispersion             -0.139691434242 Eh    ::
         :: repulsion energy           1.971221189985 Eh    ::
         :: add. restraining           0.000000000000 Eh    ::
         :: total charge              -1.999999999941 e     ::
         :::::::::::::::::::::::::::::::::::::::::::::::::::::

           -------------------------------------------------
          |                Property Printout                |
           -------------------------------------------------

    * Orbital Energies and Occupations

         #    Occupation            Energy/Eh            Energy/eV
      -------------------------------------------------------------
         1        2.0000           -0.5988084             -16.2944
       ...           ...                  ...                  ...
       152        2.0000           -0.2460021              -6.6941
       153        2.0000           -0.2431607              -6.6167
       154        2.0000           -0.2337234              -6.3599
       155        2.0000           -0.2334442              -6.3523
       156        2.0000           -0.2298837              -6.2555
       157        2.0000           -0.2276903              -6.1958
       158        2.0000           -0.2157913              -5.8720
       159        2.0000           -0.2077051              -5.6519
       160        2.0000           -0.1973260              -5.3695
       161        2.0000           -0.1689508              -4.5974
       162        2.0000           -0.1571962              -4.2775
       163        1.9999           -0.1423062              -3.8724
       164        1.9583           -0.1365984              -3.7170 (HOMO)
       165        0.0418           -0.1292887              -3.5181 (LUMO)
       166        0.0000           -0.1193123              -3.2467
       167                         -0.0926200              -2.5203
       168                         -0.0890058              -2.4220
       169                         -0.0867719              -2.3612
       170                         -0.0865567              -2.3553
       171                         -0.0783592              -2.1323
       172                         -0.0686354              -1.8677
       173                         -0.0548883              -1.4936
       174                         -0.0332667              -0.9052
       175                          0.0061791               0.1681
       ...                                ...                  ...
       296                          0.8044696              21.8907
      -------------------------------------------------------------
                  HL-Gap            0.0073097 Eh            0.1989 eV
             Fermi-level           -0.1329424 Eh           -3.6175 eV

     #   Z          covCN         q      C6AA      α(0)
     1   7 N        2.684    -0.214    25.673     7.525
     2   6 C        3.793     0.042    19.881     6.350
     3   6 C        2.749     0.272    22.395     7.749
     4   8 O        0.857    -0.430    22.294     6.330
     5   7 N        2.692    -0.181    24.914     7.413
     6   6 C        3.794     0.034    20.009     6.370
     7   6 C        2.750     0.282    22.224     7.719
     8   6 C        3.795     0.034    20.005     6.369
     9   8 O        0.856    -0.392    21.524     6.220
    10   7 N        2.693    -0.170    24.679     7.378
    11   6 C        3.813    -0.061    21.661     6.624
    12   6 C        2.753     0.262    22.585     7.782
    13   6 C        3.700    -0.063    21.874     6.688
    14   6 C        3.795     0.045    19.820     6.340
    15   8 O        0.861    -0.483    23.411     6.487
    16   6 C        2.691     0.352    21.025     7.504
    17   7 N        2.690    -0.234    26.119     7.590
    18   6 C        3.779    -0.108    22.594     6.772
    19   8 O        0.856    -0.600    26.128     6.853
    20   8 O        0.856    -0.592    25.917     6.826
    21   6 C        2.779     0.259    22.640     7.793
    22   6 C        2.664     0.356    20.965     7.492
    23   6 C        3.792     0.030    20.074     6.380
    24   8 O        0.857    -0.477    23.282     6.469
    25   8 O        0.856    -0.542    24.725     6.667
    26   8 O        0.855    -0.573    25.469     6.766
    27   7 N        2.710    -0.207    25.501     7.500
    28   6 C        3.808    -0.065    21.734     6.636
    29   6 C        2.753     0.260    22.620     7.788
    30   6 C        3.805    -0.063    21.709     6.633
    31   6 C        3.796     0.027    20.133     6.389
    32   8 O        0.857    -0.431    22.320     6.334
    33   6 C        3.779    -0.050    21.501     6.606
    34   7 N        2.685    -0.180    24.905     7.412
    35   6 C        3.822    -0.065    21.725     6.633
    36   6 C        3.716     0.018    20.388     6.451
    37   6 C        2.747     0.277    22.312     7.734
    38   6 C        3.799    -0.002    20.626     6.466
    39   7 N        2.619    -0.354    29.139     8.017
    40   6 C        3.768     0.006    20.513     6.455
    41   8 O        0.857    -0.431    22.312     6.333
    42  16 S        1.933    -0.214   150.186    20.626
    43   7 N        2.679    -0.223    25.862     7.553
    44   6 C        3.807    -0.044    21.364     6.580
    45   6 C        3.730    -0.063    21.810     6.667
    46   6 C        2.755     0.252    22.773     7.815
    47   6 C        3.720    -0.114    22.799     6.820
    48   6 C        3.801    -0.054    21.542     6.608
    49   8 O        0.857    -0.444    22.575     6.370
    50   6 C        3.760    -0.106    22.571     6.773
    51   6 C        3.805    -0.059    21.630     6.621
    52   6 C        3.788    -0.064    21.738     6.640
    53   6 C        3.721     0.011    20.494     6.466
    54   7 N        2.693    -0.220    25.800     7.544
    55   6 C        2.736     0.233    23.118     7.872
    56   7 N        1.782    -0.456    32.962     8.503
    57   7 N        2.648    -0.289    27.452     7.782
    58   6 C        3.727    -0.136    23.226     6.881
    59   1 H        0.861     0.208     1.068     1.619
    60   1 H        0.925     0.029     2.602     2.522
    61   1 H        0.859     0.191     1.156     1.684
    62   1 H        0.925     0.069     2.096     2.264
    63   1 H        0.923     0.050     2.317     2.380
    64   1 H        0.861     0.191     1.153     1.682
    65   1 H        0.926     0.071     2.074     2.252
    66   1 H        0.923     0.055     2.258     2.350
    67   1 H        0.826    -0.015     3.365     2.878
    68   1 H        0.926     0.014     2.820     2.626
    69   1 H        0.921     0.049     2.327     2.386
    70   1 H        0.859     0.251     0.880     1.469
    71   1 H        0.923     0.017     2.778     2.607
    72   1 H        0.920     0.036     2.499     2.472
    73   1 H        0.927     0.067     2.114     2.273
    74   1 H        0.861     0.203     1.089     1.634
    75   1 H        0.926     0.044     2.390     2.418
    76   1 H        0.920     0.062     2.174     2.306
    77   1 H        0.924     0.062     2.171     2.304
    78   1 H        0.926     0.033     2.550     2.497
    79   1 H        0.917     0.035     2.514     2.480
    80   1 H        0.913     0.056     2.243     2.343
    81   1 H        0.901     0.007     2.950     2.687
    82   1 H        0.859     0.172     1.260     1.758
    83   1 H        0.927     0.067     2.117     2.275
    84   1 H        0.923     0.069     2.101     2.267
    85   1 H        0.918     0.051     2.304     2.374
    86   1 H        0.919     0.018     2.769     2.603
    87   1 H        0.928     0.051     2.304     2.373
    88   1 H        0.920     0.041     2.439     2.442
    89   1 H        0.861     0.145     1.432     1.875
    90   1 H        0.857     0.116     1.657     2.017
    91   1 H        0.923     0.074     2.046     2.237
    92   1 H        0.861     0.185     1.184     1.704
    93   1 H        0.926     0.066     2.127     2.281
    94   1 H        0.928     0.072     2.063     2.246
    95   1 H        0.923     0.053     2.277     2.360
    96   1 H        0.928     0.050     2.314     2.379
    97   1 H        0.925     0.038     2.474     2.460
    98   1 H        0.923     0.041     2.442     2.444
    99   1 H        0.927     0.050     2.317     2.380
   100   1 H        0.922     0.026     2.643     2.542
   101   1 H        0.928     0.039     2.463     2.454
   102   1 H        0.927     0.036     2.506     2.475
   103   1 H        0.923     0.034     2.525     2.485
   104   1 H        0.927     0.056     2.249     2.345
   105   1 H        0.924     0.045     2.381     2.413
   106   1 H        0.922     0.039     2.457     2.451
   107   1 H        0.927     0.040     2.449     2.447
   108   1 H        0.918     0.040     2.450     2.448
   109   1 H        0.922     0.050     2.325     2.385
   110   1 H        0.922     0.020     2.728     2.583
   111   1 H        0.859     0.151     1.392     1.848
   112   1 H        0.863     0.136     1.498     1.917
   113   1 H        0.861     0.172     1.258     1.757
   114   1 H        0.858     0.169     1.278     1.771
   115   1 H        0.922     0.108     1.716     2.049
   116   1 H        0.926     0.045     2.387     2.416
   117   1 H        0.905     0.047     2.364     2.406

 Mol. C6AA /au·bohr⁶  :     136472.003156
 Mol. C8AA /au·bohr⁸  :    3093200.110084
 Mol. α(0) /au        :        551.768283


Wiberg/Mayer (AO) data.
largest (>0.10) Wiberg bond orders for each atom

 ---------------------------------------------------------------------------
     #   Z sym  total        # sym  WBO       # sym  WBO       # sym  WBO
 ---------------------------------------------------------------------------
     1   7 N    3.328 --     7 C    1.136     2 C    1.017    59 H    0.912
                             9 O    0.172
     2   6 C    3.979 --     1 N    1.017    51 C    0.974    60 H    0.936
                             3 C    0.933
     3   6 C    3.948 --     4 O    1.698     5 N    1.236     2 C    0.933
     4   8 O    2.001 --     3 C    1.698     5 N    0.189
     5   7 N    3.419 --     3 C    1.236     6 C    1.002    61 H    0.907
                             4 O    0.189
     6   6 C    3.976 --     5 N    1.002    46 C    0.976    58 C    0.963
                            62 H    0.929
     7   6 C    3.931 --     9 O    1.762     1 N    1.136     8 C    0.933
     8   6 C    3.963 --    11 C    0.982    10 N    0.976    63 H    0.953
                             7 C    0.933
     9   8 O    2.078 --     7 C    1.762     1 N    0.172
    10   7 N    3.458 --    12 C    1.285     8 C    0.976    64 H    0.925
                            15 O    0.184
    11   6 C    3.981 --    13 C    0.987     8 C    0.982    66 H    0.967
                            65 H    0.957
    12   6 C    3.939 --    15 O    1.638    10 N    1.285    14 C    0.921
    13   6 C    3.957 --    11 C    0.987    68 H    0.976    67 H    0.969
                            16 C    0.923
    14   6 C    3.968 --    18 C    0.995    17 N    0.991    69 H    0.949
                            12 C    0.921
    15   8 O    1.944 --    12 C    1.638    10 N    0.184
    16   6 C    3.947 --    20 O    1.520    19 O    1.487    13 C    0.923
    17   7 N    3.379 --    21 C    1.276    14 C    0.991    70 H    0.805
                            24 O    0.184
    18   6 C    3.966 --    14 C    0.995    72 H    0.979    71 H    0.971
                            22 C    0.856
    19   8 O    1.779 --    16 C    1.487    20 O    0.232
    20   8 O    1.824 --    16 C    1.520    19 O    0.232
    21   6 C    3.952 --    24 O    1.629    17 N    1.276    23 C    0.950
    22   6 C    3.941 --    25 O    1.597    26 O    1.460    18 C    0.856
    23   6 C    3.959 --    28 C    0.977    27 N    0.961    73 H    0.953
                            21 C    0.950
    24   8 O    1.977 --    21 C    1.629    17 N    0.184
    25   8 O    1.907 --    22 C    1.597    26 O    0.220
    26   8 O    1.916 --    22 C    1.460    25 O    0.220
    27   7 N    3.450 --    29 C    1.282    23 C    0.961    74 H    0.899
                            32 O    0.215
    28   6 C    3.986 --    30 C    1.004    23 C    0.977    75 H    0.968
                            76 H    0.957
    29   6 C    3.958 --    32 O    1.681    27 N    1.282    31 C    0.934
    30   6 C    3.992 --    33 C    1.009    28 C    1.004    78 H    0.975
                            77 H    0.963
    31   6 C    3.961 --    35 C    0.986    34 N    0.974    79 H    0.936
                            29 C    0.934
    32   8 O    2.014 --    29 C    1.681    27 N    0.215
    33   6 C    3.990 --    36 C    1.023    30 C    1.009    81 H    0.964
                            80 H    0.949
    34   7 N    3.441 --    37 C    1.255    31 C    0.974    82 H    0.927
                            41 O    0.198
    35   6 C    3.986 --    38 C    1.018    31 C    0.986    84 H    0.957
                            83 H    0.955
    36   6 C    3.981 --    33 C    1.023    39 N    0.992    86 H    0.979
                            85 H    0.972
    37   6 C    3.946 --    41 O    1.682    34 N    1.255    40 C    0.929
    38   6 C    3.981 --    35 C    1.018    42 S    0.993    87 H    0.972
                            88 H    0.968
    39   7 N    2.992 --    36 C    0.992    90 H    0.980    89 H    0.969
    40   6 C    3.956 --    43 N    0.978    91 H    0.956    44 C    0.952
                            37 C    0.929
    41   8 O    2.021 --    37 C    1.682    34 N    0.198
    42  16 S    2.070 --    45 C    0.996    38 C    0.993
    43   7 N    3.351 --    46 C    1.184    40 C    0.978    92 H    0.927
                            49 O    0.171
    44   6 C    3.972 --    48 C    0.993    47 C    0.988    93 H    0.967
                            40 C    0.952
    45   6 C    3.972 --    42 S    0.996    96 H    0.986    95 H    0.983
                            94 H    0.983
    46   6 C    3.910 --    49 O    1.675    43 N    1.184     6 C    0.976
    47   6 C    3.988 --    98 H    0.989    97 H    0.988    44 C    0.988
                            99 H    0.987
    48   6 C    3.997 --    50 C    1.030    44 C    0.993   100 H    0.975
                           101 H    0.971
    49   8 O    1.977 --    46 C    1.675    43 N    0.171
    50   6 C    3.995 --    48 C    1.030   102 H    0.986   103 H    0.981
                           104 H    0.975
    51   6 C    3.990 --    52 C    1.018     2 C    0.974   105 H    0.972
                           106 H    0.965
    52   6 C    3.991 --    51 C    1.018   107 H    0.975    53 C    0.974
                           108 H    0.974
    53   6 C    3.977 --    54 N    1.018    52 C    0.974   110 H    0.968
                           109 H    0.961
    54   7 N    3.311 --    55 C    1.120    53 C    1.018   111 H    0.941
                            56 N    0.137
    55   6 C    3.956 --    56 N    1.645    57 N    1.158    54 N    1.120
    56   7 N    2.901 --    55 C    1.645   112 H    0.934    54 N    0.137
                            57 N    0.127
    57   7 N    3.267 --    55 C    1.158   114 H    0.955   113 H    0.952
                            56 N    0.127
    58   6 C    3.967 --   116 H    0.981   117 H    0.976   115 H    0.964
                             6 C    0.963
    59   1 H    0.956 --     1 N    0.912
    60   1 H    0.999 --     2 C    0.936
    61   1 H    0.964 --     5 N    0.907
    62   1 H    0.993 --     6 C    0.929
    63   1 H    0.997 --     8 C    0.953
    64   1 H    0.963 --    10 N    0.925
    65   1 H    0.995 --    11 C    0.957
    66   1 H    0.996 --    11 C    0.967
    67   1 H    1.000 --    13 C    0.969
    68   1 H    0.999 --    13 C    0.976
    69   1 H    0.997 --    14 C    0.949
    70   1 H    0.937 --    17 N    0.805
    71   1 H    1.000 --    18 C    0.971
    72   1 H    0.998 --    18 C    0.979
    73   1 H    0.995 --    23 C    0.953
    74   1 H    0.958 --    27 N    0.899
    75   1 H    0.998 --    28 C    0.968
    76   1 H    0.996 --    28 C    0.957
    77   1 H    0.996 --    30 C    0.963
    78   1 H    0.999 --    30 C    0.975
    79   1 H    0.998 --    31 C    0.936
    80   1 H    0.997 --    33 C    0.949
    81   1 H    1.000 --    33 C    0.964
    82   1 H    0.970 --    34 N    0.927
    83   1 H    0.995 --    35 C    0.955
    84   1 H    0.995 --    35 C    0.957
    85   1 H    0.997 --    36 C    0.972
    86   1 H    1.000 --    36 C    0.979
    87   1 H    0.997 --    38 C    0.972
    88   1 H    0.998 --    38 C    0.968
    89   1 H    0.979 --    39 N    0.969
    90   1 H    0.986 --    39 N    0.980
    91   1 H    0.994 --    40 C    0.956
    92   1 H    0.965 --    43 N    0.927
    93   1 H    0.995 --    44 C    0.967
    94   1 H    0.995 --    45 C    0.983
    95   1 H    0.997 --    45 C    0.983
    96   1 H    0.997 --    45 C    0.986
    97   1 H    0.998 --    47 C    0.988
    98   1 H    0.998 --    47 C    0.989
    99   1 H    0.997 --    47 C    0.987
   100   1 H    0.999 --    48 C    0.975
   101   1 H    0.998 --    48 C    0.971
   102   1 H    0.999 --    50 C    0.986
   103   1 H    0.999 --    50 C    0.981
   104   1 H    0.997 --    50 C    0.975
   105   1 H    0.998 --    51 C    0.972
   106   1 H    0.998 --    51 C    0.965
   107   1 H    0.998 --    52 C    0.975
   108   1 H    0.998 --    52 C    0.974
   109   1 H    0.997 --    53 C    0.961
   110   1 H    0.999 --    53 C    0.968
   111   1 H    0.977 --    54 N    0.941
   112   1 H    0.981 --    56 N    0.934
   113   1 H    0.970 --    57 N    0.952
   114   1 H    0.971 --    57 N    0.955
   115   1 H    0.988 --    58 C    0.964
   116   1 H    0.998 --    58 C    0.981
   117   1 H    0.998 --    58 C    0.976
 ---------------------------------------------------------------------------

Topologies differ in total number of bonds
Writing topology from bond orders to xtbtopo.mol

molecular dipole:
                 x           y           z       tot (Debye)
 q only:        2.614      14.041       1.026
   full:        2.531      13.831       1.181      35.865
molecular quadrupole (traceless):
                xx          xy          yy          xz          yz          zz
 q only:        9.270       4.117     -58.028      79.589     -85.129      48.759
  q+dip:       -6.856      20.988     -50.915      77.726     -86.946      57.771
   full:       -6.583      21.734     -50.485      77.040     -86.876      57.068


           -------------------------------------------------
          | TOTAL ENERGY             -185.531335050420 Eh   |
          | GRADIENT NORM               0.351055309161 Eh/α |
          | HOMO-LUMO GAP               0.198906647957 eV   |
           -------------------------------------------------

------------------------------------------------------------------------
 * finished run on 2026/05/23 at 12:34:19.117     
------------------------------------------------------------------------
 total:
 * wall-time:     0 d,  0 h,  0 min, 38.271 sec
 *  cpu-time:     0 d,  0 h,  0 min, 51.366 sec
 * ratio c/w:     1.342 speedup
 SCF:
 * wall-time:     0 d,  0 h,  0 min, 36.632 sec
 *  cpu-time:     0 d,  0 h,  0 min, 50.340 sec
 * ratio c/w:     1.374 speedup

normal termination of xtb
