      -----------------------------------------------------------      
     |                   =====================                   |     
     |                           x T B                           |     
     |                   =====================                   |     
     |                         S. Grimme                         |     
     |          Mulliken Center for Theoretical Chemistry        |     
     |                    University of Bonn                     |     
      -----------------------------------------------------------      

   * xtb version 6.7.1 (26dd68d) compiled by 'froitzheim@fs7' on 2026-05-14

   xtb is free software: you can redistribute it and/or modify it under
   the terms of the GNU Lesser General Public License as published by
   the Free Software Foundation, either version 3 of the License, or
   (at your option) any later version.
   
   xtb is distributed in the hope that it will be useful,
   but WITHOUT ANY WARRANTY; without even the implied warranty of
   MERCHANTABILITY or FITNESS FOR A PARTICULAR PURPOSE.  See the
   GNU Lesser General Public License for more details.
   
   Cite this work as:
   * C. Bannwarth, E. Caldeweyher, S. Ehlert, A. Hansen, P. Pracht,
     J. Seibert, S. Spicher, S. Grimme, WIREs Comput. Mol. Sci., 2020, 11,
     e01493. DOI: 10.1002/wcms.1493
   
   for g-xTB:
   * T. Froitzheim, M. Müller, A. Hansen, S. Grimme, ChemRxiv, 2025, preprint.
     DOI: 10.26434/chemrxiv-2025-bjxv
   for GFN2-xTB:
   * C. Bannwarth, S. Ehlert and S. Grimme., J. Chem. Theory Comput., 2019,
     15, 1652-1671. DOI: 10.1021/acs.jctc.8b01176
   for GFN1-xTB:
   * S. Grimme, C. Bannwarth, P. Shushkov, J. Chem. Theory Comput., 2017,
     13, 1989-2009. DOI: 10.1021/acs.jctc.7b00118
   for GFN0-xTB:
   * P. Pracht, E. Caldeweyher, S. Ehlert, S. Grimme, ChemRxiv, 2019, preprint.
     DOI: 10.26434/chemrxiv.8326202.v1
   for GFN-FF:
   * S. Spicher and S. Grimme, Angew. Chem. Int. Ed., 2020, 59, 15665-15673.
     DOI: 10.1002/anie.202004239
   
   for ALPB and GBSA implicit solvation:
   * S. Ehlert, M. Stahn, S. Spicher, S. Grimme, J. Chem. Theory Comput.,
     2021, 17, 4250-4261. DOI: 10.1021/acs.jctc.1c00471
   
   for ddCOSMO and CPCM-X implicit solvation:
   * M. Stahn, S. Ehlert, S. Grimme, J. Phys. Chem. A,
     2023, XX, XXXX-XXXX. DOI: 10.1021/acs.jpca.3c04382
   
   for DFT-D4:
   * E. Caldeweyher, C. Bannwarth and S. Grimme, J. Chem. Phys., 2017,
     147, 034112. DOI: 10.1063/1.4993215
   * E. Caldeweyher, S. Ehlert, A. Hansen, H. Neugebauer, S. Spicher,
     C. Bannwarth and S. Grimme, J. Chem. Phys., 2019, 150, 154122.
     DOI: 10.1063/1.5090222
   * E. Caldeweyher, J.-M. Mewes, S. Ehlert and S. Grimme, Phys. Chem. Chem. Phys.
     2020, 22, 8499-8512. DOI: 10.1039/D0CP00502A
   
   for sTDA-xTB:
   * S. Grimme and C. Bannwarth, J. Chem. Phys., 2016, 145, 054103.
     DOI: 10.1063/1.4959605
   
   in the mass-spec context:
   * V. Asgeirsson, C. Bauer and S. Grimme, Chem. Sci., 2017, 8, 4879.
     DOI: 10.1039/c7sc00601b
   * J. Koopman and S. Grimme, ACS Omega 2019, 4, 12, 15120-15133.
     DOI: 10.1021/acsomega.9b02011
   
   for metadynamics refer to:
   * S. Grimme, J. Chem. Theory Comput., 2019, 155, 2847-2862
     DOI: 10.1021/acs.jctc.9b00143
   
   for SPH calculations refer to:
   * S. Spicher and S. Grimme, J. Chem. Theory Comput., 2021, 17, 1701-1714
     DOI: 10.1021/acs.jctc.0c01306
   
   for ONIOM refer to:
   * C. Plett, A. Katbashev, S. Ehlert, S. Grimme, M. Bursch,
     Phys. Chem. Chem. Phys., 2023, 25, 17860-17868. DOI: 10.1039/D3CP02178E
   
   for DIPRO refer to:
   * J. Kohn, N. Gildemeister, S. Grimme, D. Fazzi, A. Hansen,
     J. Chem. Phys. 159, 144106 (2023). DOI: 10.1063/5.0167484
   
   for PTB refer to:
   * S. Grimme, M. Mueller, A. Hansen, J. Chem. Phys., 2023, 158, 124111.
     DOI: 10.1063/5.0137838
   
   with help from (in alphabetical order)
   P. Atkinson, C. Bannwarth, F. Bohle, G. Brandenburg, E. Caldeweyher,
   M. Checinski, S. Dohm, S. Ehlert, S. Ehrlich, M. Friede, T. Froitzheim,
   I. Gerasimov, C. Hölzer, A. Katbashev, J. Kohn, J. Koopman, C. Lavigne,
   S. Lehtola, F. März, M. Müller, F. Musil, H. Neugebauer, J. Pisarek,
   C. Plett, P. Pracht, F. Pultar, J. Seibert, P. Shushkov, S. Spicher,
   M. Stahn, M. Steiner, T. Strunk, J. Stückrath, T. Rose, and J. Unsleber
   
 * started run on 2026/05/23 at 12:51:58.185     
   ID    Z sym.   atoms
    1    7 N      1, 5, 10, 17, 18, 26, 33, 36, 42, 49, 54
    2    6 C      2, 3, 6-8, 11-14, 19-22, 24, 25, 27-30, 32, 34, 37, 39, 40,
                  43-45, 47, 50-52, 55
    3    8 O      4, 9, 15, 16, 23, 31, 35, 38, 41, 46, 48, 53, 56
    4    1 H      57-109

           -------------------------------------------------
          |                Calculation Setup                |
           -------------------------------------------------

          program call               : /home/xchen/software/xtb-6.7.1-gxtb/bin/xtb /home/xchen/Test/benchmark/md_sampled/08_7_0366_0/snap_0139.xyz --charge 0 --gxtb --norestart
          coordinate file            : /home/xchen/Test/benchmark/md_sampled/08_7_0366_0/snap_0139.xyz
          omp threads                :                    48

core increment energy         -2.5714958258590E+03 Eh
dispersion energy              2.7586924172229E-02 Eh
molecular charge               0.0000000000000E+00 e
number of electrons            3.1399999999720E+02 e
number of unpaired electrons   0.0000000000000E+00 e
wavefunction                   restricted
integral cutoff                2.6907767250513E+01 bohr
energy convergence             1.0000000000000E-06 Eh
density convergence            2.0000000000000E-05 e

------------------------------------------------------------
  cycle        total energy    energy error   density error
------------------------------------------------------------
      1     -2830.148856989  -2.5868062E+02   0.0000000E+00
      2     -2830.650576242  -5.0171925E-01   1.9072050E-02
      3     -2830.980415708  -3.2983947E-01   1.5229616E-02
      4     -2831.698867535  -7.1845183E-01   1.2178701E-02
      5     -2831.709887321  -1.1019786E-02   9.6121167E-04
      6     -2831.710576191  -6.8887067E-04   1.9259614E-04
      7     -2831.710633802  -5.7610663E-05   6.1247956E-05
      8     -2831.710638869  -5.0666366E-06   1.6784614E-05
      9     -2831.710639441  -5.7237560E-07   3.0141998E-06
------------------------------------------------------------

electronic energy             -2.6024240050631E+02 Eh
total energy                  -2.8317106394411E+03 Eh

Post processing:
 | Mayer-Wiberg bond orders
 | Molecular Multipole Moments

 total:                                  22.371 sec
 - increment                              0.000 sec (  0%)
 - repulsion                              0.020 sec (  0%)
 - dispersion                             0.678 sec (  3%)
 - coulomb                                0.232 sec (  1%)
 - exchange                               0.009 sec (  0%)
 - hamiltonian                           11.036 sec ( 49%)
 - acp                                    0.261 sec (  1%)
 - spin polarization                      0.000 sec (  0%)
 - post processing                        0.112 sec (  0%)
 - scc                                    8.955 sec ( 40%)
 - coulomb gradient                       0.242 sec (  1%)
 - dispersion gradient                    0.063 sec (  0%)
 - exchange gradient                      0.174 sec (  0%)
 - repulsion gradient                     0.019 sec (  0%)
 - acp gradient                           0.293 sec (  1%)
 - hamiltonian gradient                   0.382 sec (  1%)
 - gradient                               1.172 sec (  5%)

         :::::::::::::::::::::::::::::::::::::::::::::::::::::
         ::                     SUMMARY                     ::
         :::::::::::::::::::::::::::::::::::::::::::::::::::::
         :: total energy           -2831.710639441141 Eh    ::
         :: gradient norm              0.386415849547 Eh/a0 ::
         :: HOMO-LUMO gap              9.312304420620 eV    ::
         ::.................................................::
         :: add. restraining           0.000000000000 Eh    ::
         :: total charge              -0.000000000000 e     ::
         :::::::::::::::::::::::::::::::::::::::::::::::::::::

           -------------------------------------------------
          |                Property Printout                |
           -------------------------------------------------

    * Orbital Energies and Occupations
------------------------------------------------------------------
      #    Occupation            Energy/Eh            Energy/eV
------------------------------------------------------------------
      1        2.0000           -1.3528792             -36.8137
    ...           ...                  ...                  ...
    145        2.0000           -0.3785286             -10.3003
    146        2.0000           -0.3713636             -10.1053
    147        2.0000           -0.3689806             -10.0405
    148        2.0000           -0.3665952              -9.9756
    149        2.0000           -0.3647694              -9.9259
    150        2.0000           -0.3632866              -9.8855
    151        2.0000           -0.3620741              -9.8525
    152        2.0000           -0.3604478              -9.8083
    153        2.0000           -0.3571445              -9.7184
    154        2.0000           -0.3563193              -9.6959
    155        2.0000           -0.3517832              -9.5725
    156        2.0000           -0.3471681              -9.4469
    157        2.0000           -0.3441734              -9.3654 (HOMO)
    158                         -0.0019525              -0.0531 (LUMO)
    159                          0.0090996               0.2476
    160                          0.0198354               0.5397
    161                          0.0201582               0.5485
    162                          0.0279968               0.7618
    163                          0.0318034               0.8654
    164                          0.0382056               1.0396
    165                          0.0418894               1.1399
    166                          0.0473458               1.2883
    167                          0.0521006               1.4177
    168                          0.0536627               1.4602
    ...                                ...                  ...
    277                          0.7477844              20.3482
------------------------------------------------------------------
               HL-Gap            0.3422209 Eh            9.3123 eV
------------------------------------------------------------------

Atomic charges and shell populations (in atomic units):
------------------------------------------------------
     #    Z                q          p(s)       p(p)
------------------------------------------------------
     1    7 N      -0.330517      1.369986   3.960531
     2    6 C       0.015582      1.150939   2.833479
     3    6 C       0.418847      1.109984   2.471169
     4    8 O      -0.558417      1.856382   4.702035
     5    7 N      -0.336428      1.373810   3.962619
     6    6 C       0.008230      1.139660   2.852110
     7    6 C       0.401804      1.113496   2.484701
     8    6 C      -0.011908      1.132103   2.879805
     9    8 O      -0.545169      1.851851   4.693318
    10    7 N      -0.379789      1.358716   4.021073
    11    6 C      -0.203405      1.155924   3.047480
    12    6 C       0.413910      1.106252   2.479838
    13    6 C       0.413632      1.111520   2.474848
    14    6 C       0.008576      1.106517   2.884907
    15    8 O      -0.494256      1.852199   4.642056
    16    8 O      -0.493014      1.863031   4.629983
    17    7 N      -0.444164      1.433259   4.010904
    18    7 N      -0.323798      1.352432   3.971366
    19    6 C      -0.168406      1.156839   3.011567
    20    6 C       0.422556      1.093597   2.483847
    21    6 C      -0.084647      1.146289   2.938359
    22    6 C       0.014267      1.106707   2.879026
    23    8 O      -0.564168      1.852790   4.711378
    24    6 C      -0.239188      1.173499   3.065689
    25    6 C      -0.262338      1.177626   3.084712
    26    7 N      -0.333298      1.363942   3.969356
    27    6 C      -0.177672      1.167567   3.010105
    28    6 C       0.428223      1.097674   2.474103
    29    6 C      -0.182189      1.199832   2.982357
    30    6 C       0.006458      1.111774   2.881767
    31    8 O      -0.515071      1.851242   4.663830
    32    6 C       0.389676      1.121756   2.488568
    33    7 N      -0.340187      1.372875   3.967312
    34    6 C       0.102543      1.143283   2.754174
    35    8 O      -0.546267      1.853542   4.692725
    36    7 N      -0.408536      1.406215   4.002322
    37    6 C       0.432750      1.099016   2.468234
    38    8 O      -0.628363      1.819377   4.808986
    39    6 C      -0.266336      1.162670   3.103666
    40    6 C       0.003755      1.112261   2.883984
    41    8 O      -0.511863      1.843690   4.668173
    42    7 N      -0.317356      1.340972   3.976384
    43    6 C      -0.176054      1.155437   3.020617
    44    6 C       0.437756      1.101907   2.460337
    45    6 C      -0.213453      1.161944   3.051509
    46    8 O      -0.561648      1.852489   4.709159
    47    6 C       0.399272      1.106228   2.494500
    48    8 O      -0.581520      1.865958   4.715562
    49    7 N      -0.405513      1.378141   4.027372
    50    6 C      -0.165128      1.134036   3.031092
    51    6 C      -0.191182      1.159393   3.031789
    52    6 C       0.389364      1.100650   2.509986
    53    8 O      -0.553618      1.857344   4.696274
    54    7 N      -0.405776      1.369201   4.036574
    55    6 C       0.069623      1.123424   2.806953
    56    8 O      -0.577285      1.779481   4.797804
    57    1 H       0.264760      0.735240
    58    1 H       0.148417      0.851583
    59    1 H       0.276017      0.723983
    60    1 H       0.146603      0.853397
    61    1 H       0.143470      0.856530
    62    1 H       0.252652      0.747348
    63    1 H       0.120186      0.879814
    64    1 H       0.121043      0.878957
    65    1 H       0.144553      0.855447
    66    1 H       0.253633      0.746367
    67    1 H       0.249992      0.750008
    68    1 H       0.317633      0.682367
    69    1 H       0.127768      0.872232
    70    1 H       0.078134      0.921866
    71    1 H       0.083802      0.916198
    72    1 H       0.140519      0.859481
    73    1 H       0.058251      0.941749
    74    1 H       0.079729      0.920271
    75    1 H       0.080296      0.919704
    76    1 H       0.088797      0.911203
    77    1 H       0.098895      0.901105
    78    1 H       0.099274      0.900726
    79    1 H       0.252520      0.747480
    80    1 H       0.109559      0.890441
    81    1 H       0.118065      0.881935
    82    1 H       0.102626      0.897374
    83    1 H       0.103199      0.896801
    84    1 H       0.140159      0.859841
    85    1 H       0.278261      0.721739
    86    1 H       0.130256      0.869744
    87    1 H       0.258371      0.741629
    88    1 H       0.241841      0.758159
    89    1 H       0.363467      0.636533
    90    1 H       0.104232      0.895768
    91    1 H       0.102955      0.897045
    92    1 H       0.100112      0.899888
    93    1 H       0.123174      0.876826
    94    1 H       0.265049      0.734951
    95    1 H       0.126241      0.873759
    96    1 H       0.118359      0.881641
    97    1 H       0.105734      0.894266
    98    1 H       0.154505      0.845495
    99    1 H       0.260041      0.739959
   100    1 H       0.259359      0.740641
   101    1 H       0.130850      0.869150
   102    1 H       0.109939      0.890061
   103    1 H       0.111183      0.888817
   104    1 H       0.121707      0.878293
   105    1 H       0.250543      0.749457
   106    1 H       0.261651      0.738349
   107    1 H       0.105617      0.894383
   108    1 H       0.059542      0.940458
   109    1 H       0.377560      0.622440
------------------------------------------------------


Wiberg/Mayer (AO) data.
largest (>0.10) Wiberg bond orders for each atom

 ---------------------------------------------------------------------------
     #   Z sym  total        # sym  WBO       # sym  WBO       # sym  WBO
 ---------------------------------------------------------------------------
     1   7 N    3.346 --     7 C    1.266     2 C    0.916    57 O    0.891
                             9 C    0.164
     2   6 C    3.903 --    50 C    0.995    58 O    0.935     3 C    0.918
                             1 N    0.916
     3   6 C    3.862 --     4 C    1.632     5 N    1.233     2 C    0.918
     4   8 C    1.927 --     3 C    1.632     5 N    0.153
     5   7 N    3.316 --     3 C    1.233     6 C    0.949    59 O    0.893
                             4 C    0.153
     6   6 C    3.910 --    55 C    0.973     5 N    0.949    44 C    0.930
                            60 O    0.919
     7   6 C    3.863 --     9 C    1.652     1 N    1.266     8 C    0.866
     8   6 C    3.930 --    10 N    0.998    11 C    0.979    61 O    0.934
                             7 C    0.866
     9   8 C    1.944 --     7 C    1.652     1 N    0.164
    10   7 N    3.267 --    12 C    1.128     8 C    0.998    62 O    0.897
                            15 C    0.146
    11   6 C    3.959 --     8 C    0.979    13 C    0.968    63 O    0.953
                            64 O    0.944
    12   6 C    3.865 --    15 C    1.705    10 N    1.128    14 C    0.949
    13   6 C    3.870 --    16 C    1.730    17 N    1.138    11 C    0.968
    14   6 C    3.946 --    18 N    0.984    19 C    0.975    12 C    0.949
                            65 O    0.902
    15   8 C    1.987 --    12 C    1.705    10 N    0.146
    16   8 C    1.975 --    13 C    1.730    17 N    0.139
    17   7 N    3.140 --    13 C    1.138    67 O    0.918    66 O    0.910
                            16 C    0.139
    18   7 N    3.349 --    20 C    1.251    14 C    0.984    68 O    0.837
                            23 C    0.169
    19   6 C    3.959 --    21 C    0.989    14 C    0.975    70 O    0.957
                            69 O    0.953
    20   6 C    3.876 --    23 C    1.630    18 N    1.251    22 C    0.928
    21   6 C    3.969 --    24 C    1.009    25 C    0.993    19 C    0.989
                            71 O    0.945
    22   6 C    3.943 --    26 N    0.987    27 C    0.982    20 C    0.928
                            72 O    0.920
    23   8 C    1.926 --    20 C    1.630    18 N    0.169
    24   6 C    3.961 --    21 C    1.009    75 O    0.975    74 O    0.972
                            73 O    0.965
    25   6 C    3.956 --    21 C    0.993    77 O    0.975    76 O    0.974
                            78 O    0.958
    26   7 N    3.301 --    28 C    1.173    22 C    0.987    79 O    0.882
                            31 C    0.153
    27   6 C    3.948 --    22 C    0.982    29 C    0.964    81 O    0.959
                            80 O    0.958
    28   6 C    3.871 --    31 C    1.698    26 N    1.173    30 C    0.920
    29   6 C    3.948 --    27 C    0.964    82 O    0.963    83 O    0.959
                            32 C    0.937
    30   6 C    3.936 --    33 N    0.988    34 C    0.952    84 O    0.930
                            28 C    0.920
    31   8 C    1.972 --    28 C    1.698    26 N    0.153
    32   6 C    3.850 --    35 C    1.651    36 N    1.228    29 C    0.937
    33   7 N    3.318 --    37 C    1.206    30 C    0.988    85 O    0.846
                            41 C    0.151
    34   6 C    3.878 --    39 C    1.017    30 C    0.952    86 O    0.945
                            38 C    0.905
    35   8 C    1.948 --    32 C    1.651    36 N    0.150
    36   7 N    3.239 --    32 C    1.228    88 O    0.916    87 O    0.907
                            35 C    0.150
    37   6 C    3.866 --    41 C    1.677    33 N    1.206    40 C    0.897
    38   8 C    1.849 --    34 C    0.905    89 O    0.832
    39   6 C    3.956 --    34 C    1.017    91 O    0.969    92 O    0.968
                            90 O    0.959
    40   6 C    3.941 --    43 C    1.013    42 N    0.958    93 O    0.935
                            37 C    0.897
    41   8 C    1.998 --    37 C    1.677    33 N    0.151
    42   7 N    3.337 --    44 C    1.234    40 C    0.958    94 O    0.895
                            46 C    0.154
    43   6 C    3.952 --    40 C    1.013    45 C    0.975    96 O    0.954
                            95 O    0.934
    44   6 C    3.858 --    46 C    1.601    42 N    1.234     6 C    0.930
    45   6 C    3.956 --    43 C    0.975    47 C    0.972    97 O    0.940
                            98 O    0.930
    46   8 C    1.928 --    44 C    1.601    42 N    0.154
    47   6 C    3.872 --    48 C    1.580    49 N    1.284    45 C    0.972
    48   8 C    1.860 --    47 C    1.580    49 N    0.154
    49   7 N    3.290 --    47 C    1.284    99 O    0.910   100 O    0.900
                            48 C    0.154
    50   6 C    3.960 --    51 C    1.005     2 C    0.995   101 O    0.954
                           102 O    0.952
    51   6 C    3.960 --    50 C    1.005   104 O    0.955   103 O    0.946
                            52 C    0.940
    52   6 C    3.878 --    53 C    1.630    54 N    1.269    51 C    0.940
    53   8 C    1.903 --    52 C    1.630    54 N    0.163
    54   7 N    3.282 --    52 C    1.269   105 O    0.911   106 O    0.906
                            53 C    0.163
    55   6 C    3.896 --    56 C    0.978     6 C    0.973   107 O    0.951
                           108 O    0.940
    56   8 C    1.877 --    55 C    0.978   109 O    0.795
    57   1 O    0.930 --     1 N    0.891
    58   1 O    0.978 --     2 C    0.935
    59   1 O    0.924 --     5 N    0.893
    60   1 O    0.979 --     6 C    0.919
    61   1 O    0.979 --     8 C    0.934
    62   1 O    0.936 --    10 N    0.897
    63   1 O    0.986 --    11 C    0.953
    64   1 O    0.985 --    11 C    0.944
    65   1 O    0.979 --    14 C    0.902
    66   1 O    0.936 --    17 N    0.910
    67   1 O    0.938 --    17 N    0.918
    68   1 O    0.899 --    18 N    0.837
    69   1 O    0.984 --    19 C    0.953
    70   1 O    0.994 --    19 C    0.957
    71   1 O    0.993 --    21 C    0.945
    72   1 O    0.980 --    22 C    0.920
    73   1 O    0.997 --    24 C    0.965
    74   1 O    0.994 --    24 C    0.972
    75   1 O    0.994 --    24 C    0.975
    76   1 O    0.992 --    25 C    0.974
    77   1 O    0.990 --    25 C    0.975
    78   1 O    0.990 --    25 C    0.958
    79   1 O    0.936 --    26 N    0.882
    80   1 O    0.988 --    27 C    0.958
    81   1 O    0.986 --    27 C    0.959
    82   1 O    0.989 --    29 C    0.963
    83   1 O    0.989 --    29 C    0.959
    84   1 O    0.980 --    30 C    0.930
    85   1 O    0.923 --    33 N    0.846
    86   1 O    0.983 --    34 C    0.945
    87   1 O    0.933 --    36 N    0.907
    88   1 O    0.942 --    36 N    0.916
    89   1 O    0.868 --    38 C    0.832
    90   1 O    0.989 --    39 C    0.959
    91   1 O    0.989 --    39 C    0.969
    92   1 O    0.990 --    39 C    0.968
    93   1 O    0.985 --    40 C    0.935
    94   1 O    0.930 --    42 N    0.895
    95   1 O    0.984 --    43 C    0.934
    96   1 O    0.986 --    43 C    0.954
    97   1 O    0.989 --    45 C    0.940
    98   1 O    0.976 --    45 C    0.930
    99   1 O    0.932 --    49 N    0.910
   100   1 O    0.933 --    49 N    0.900
   101   1 O    0.983 --    50 C    0.954
   102   1 O    0.988 --    50 C    0.952
   103   1 O    0.988 --    51 C    0.946
   104   1 O    0.985 --    51 C    0.955
   105   1 O    0.937 --    54 N    0.911
   106   1 O    0.932 --    54 N    0.906
   107   1 O    0.989 --    55 C    0.951
   108   1 O    0.996 --    55 C    0.940
   109   1 O    0.857 --    56 C    0.795
 ---------------------------------------------------------------------------

Topologies differ in total number of bonds
Writing topology from bond orders to xtbtopo.mol

Atomic dipole moments (in atomic units):
---------------------------------------------------------
     #    Z                 x            y            z
---------------------------------------------------------
           total    -0.387018    -1.922129     3.196935
---------------------------------------------------------
         |total|     3.750300     9.532313 Debye


           -------------------------------------------------
          | TOTAL ENERGY            -2831.710639441141 Eh   |
          | GRADIENT NORM               0.386415849547 Eh/α |
           -------------------------------------------------

------------------------------------------------------------------------
 * finished run on 2026/05/23 at 12:52:21.465     
------------------------------------------------------------------------
 total:
 * wall-time:     0 d,  0 h,  0 min, 23.279 sec
 *  cpu-time:     0 d,  0 h,  0 min, 51.589 sec
 * ratio c/w:     2.216 speedup
 SCF:
 * wall-time:     0 d,  0 h,  0 min, 22.929 sec
 *  cpu-time:     0 d,  0 h,  0 min, 51.100 sec
 * ratio c/w:     2.229 speedup

normal termination of xtb
