      -----------------------------------------------------------      
     |                   =====================                   |     
     |                           x T B                           |     
     |                   =====================                   |     
     |                         S. Grimme                         |     
     |          Mulliken Center for Theoretical Chemistry        |     
     |                    University of Bonn                     |     
      -----------------------------------------------------------      

   * xtb version 6.7.1 (26dd68d) compiled by 'froitzheim@fs7' on 2026-05-14

   xtb is free software: you can redistribute it and/or modify it under
   the terms of the GNU Lesser General Public License as published by
   the Free Software Foundation, either version 3 of the License, or
   (at your option) any later version.
   
   xtb is distributed in the hope that it will be useful,
   but WITHOUT ANY WARRANTY; without even the implied warranty of
   MERCHANTABILITY or FITNESS FOR A PARTICULAR PURPOSE.  See the
   GNU Lesser General Public License for more details.
   
   Cite this work as:
   * C. Bannwarth, E. Caldeweyher, S. Ehlert, A. Hansen, P. Pracht,
     J. Seibert, S. Spicher, S. Grimme, WIREs Comput. Mol. Sci., 2020, 11,
     e01493. DOI: 10.1002/wcms.1493
   
   for g-xTB:
   * T. Froitzheim, M. Müller, A. Hansen, S. Grimme, ChemRxiv, 2025, preprint.
     DOI: 10.26434/chemrxiv-2025-bjxv
   for GFN2-xTB:
   * C. Bannwarth, S. Ehlert and S. Grimme., J. Chem. Theory Comput., 2019,
     15, 1652-1671. DOI: 10.1021/acs.jctc.8b01176
   for GFN1-xTB:
   * S. Grimme, C. Bannwarth, P. Shushkov, J. Chem. Theory Comput., 2017,
     13, 1989-2009. DOI: 10.1021/acs.jctc.7b00118
   for GFN0-xTB:
   * P. Pracht, E. Caldeweyher, S. Ehlert, S. Grimme, ChemRxiv, 2019, preprint.
     DOI: 10.26434/chemrxiv.8326202.v1
   for GFN-FF:
   * S. Spicher and S. Grimme, Angew. Chem. Int. Ed., 2020, 59, 15665-15673.
     DOI: 10.1002/anie.202004239
   
   for ALPB and GBSA implicit solvation:
   * S. Ehlert, M. Stahn, S. Spicher, S. Grimme, J. Chem. Theory Comput.,
     2021, 17, 4250-4261. DOI: 10.1021/acs.jctc.1c00471
   
   for ddCOSMO and CPCM-X implicit solvation:
   * M. Stahn, S. Ehlert, S. Grimme, J. Phys. Chem. A,
     2023, XX, XXXX-XXXX. DOI: 10.1021/acs.jpca.3c04382
   
   for DFT-D4:
   * E. Caldeweyher, C. Bannwarth and S. Grimme, J. Chem. Phys., 2017,
     147, 034112. DOI: 10.1063/1.4993215
   * E. Caldeweyher, S. Ehlert, A. Hansen, H. Neugebauer, S. Spicher,
     C. Bannwarth and S. Grimme, J. Chem. Phys., 2019, 150, 154122.
     DOI: 10.1063/1.5090222
   * E. Caldeweyher, J.-M. Mewes, S. Ehlert and S. Grimme, Phys. Chem. Chem. Phys.
     2020, 22, 8499-8512. DOI: 10.1039/D0CP00502A
   
   for sTDA-xTB:
   * S. Grimme and C. Bannwarth, J. Chem. Phys., 2016, 145, 054103.
     DOI: 10.1063/1.4959605
   
   in the mass-spec context:
   * V. Asgeirsson, C. Bauer and S. Grimme, Chem. Sci., 2017, 8, 4879.
     DOI: 10.1039/c7sc00601b
   * J. Koopman and S. Grimme, ACS Omega 2019, 4, 12, 15120-15133.
     DOI: 10.1021/acsomega.9b02011
   
   for metadynamics refer to:
   * S. Grimme, J. Chem. Theory Comput., 2019, 155, 2847-2862
     DOI: 10.1021/acs.jctc.9b00143
   
   for SPH calculations refer to:
   * S. Spicher and S. Grimme, J. Chem. Theory Comput., 2021, 17, 1701-1714
     DOI: 10.1021/acs.jctc.0c01306
   
   for ONIOM refer to:
   * C. Plett, A. Katbashev, S. Ehlert, S. Grimme, M. Bursch,
     Phys. Chem. Chem. Phys., 2023, 25, 17860-17868. DOI: 10.1039/D3CP02178E
   
   for DIPRO refer to:
   * J. Kohn, N. Gildemeister, S. Grimme, D. Fazzi, A. Hansen,
     J. Chem. Phys. 159, 144106 (2023). DOI: 10.1063/5.0167484
   
   for PTB refer to:
   * S. Grimme, M. Mueller, A. Hansen, J. Chem. Phys., 2023, 158, 124111.
     DOI: 10.1063/5.0137838
   
   with help from (in alphabetical order)
   P. Atkinson, C. Bannwarth, F. Bohle, G. Brandenburg, E. Caldeweyher,
   M. Checinski, S. Dohm, S. Ehlert, S. Ehrlich, M. Friede, T. Froitzheim,
   I. Gerasimov, C. Hölzer, A. Katbashev, J. Kohn, J. Koopman, C. Lavigne,
   S. Lehtola, F. März, M. Müller, F. Musil, H. Neugebauer, J. Pisarek,
   C. Plett, P. Pracht, F. Pultar, J. Seibert, P. Shushkov, S. Spicher,
   M. Stahn, M. Steiner, T. Strunk, J. Stückrath, T. Rose, and J. Unsleber
   
 * started run on 2026/05/23 at 12:26:37.887     
   ID    Z sym.   atoms
    1    7 N      1, 5, 10, 17, 27, 34, 39, 43, 54, 56, 57
    2    6 C      2, 3, 6-8, 11-14, 16, 18, 21-23, 28-31, 33, 35-38, 40,
                  44-48, 50-53, 55, 58
    3    8 O      4, 9, 15, 19, 20, 24-26, 32, 41, 49
    4   16 S      42
    5    1 H      59-117

           -------------------------------------------------
          |                Calculation Setup                |
           -------------------------------------------------

          program call               : /home/xchen/software/xtb-6.7.1-gxtb/bin/xtb /home/xchen/Test/benchmark/md_sampled/04_7_0231_n2/snap_0013.xyz --charge -2 --gxtb --norestart
          coordinate file            : /home/xchen/Test/benchmark/md_sampled/04_7_0231_n2/snap_0013.xyz
          omp threads                :                    48

core increment energy         -2.9312527735450E+03 Eh
dispersion energy              2.5681995762375E-02 Eh
molecular charge              -2.0000000000000E+00 e
number of electrons            3.2799999999710E+02 e
number of unpaired electrons   0.0000000000000E+00 e
wavefunction                   restricted
integral cutoff                2.6907767250513E+01 bohr
energy convergence             1.0000000000000E-06 Eh
density convergence            2.0000000000000E-05 e

------------------------------------------------------------
  cycle        total energy    energy error   density error
------------------------------------------------------------
      1     -3195.904252618  -2.6467716E+02   0.0000000E+00
      2     -3196.390885163  -4.8663255E-01   2.0444428E-02
      3     -3196.703913314  -3.1302815E-01   1.6114179E-02
      4     -3197.369477043  -6.6556373E-01   1.2746055E-02
      5     -3197.379316938  -9.8398951E-03   7.9104147E-04
      6     -3197.380142626  -8.2568805E-04   1.7211341E-04
      7     -3197.380211071  -6.8445080E-05   4.9871463E-05
      8     -3197.380215358  -4.2871899E-06   1.4805783E-05
      9     -3197.380215799  -4.4109032E-07   2.5147155E-06
------------------------------------------------------------

electronic energy             -2.6615312425009E+02 Eh
total energy                  -3.1973802157993E+03 Eh

Post processing:
 | Mayer-Wiberg bond orders
 | Molecular Multipole Moments

 total:                                  15.665 sec
 - increment                              0.000 sec (  0%)
 - repulsion                              0.020 sec (  0%)
 - dispersion                             0.644 sec (  4%)
 - coulomb                                0.264 sec (  1%)
 - exchange                               0.006 sec (  0%)
 - hamiltonian                            0.638 sec (  4%)
 - acp                                    0.492 sec (  3%)
 - spin polarization                      0.000 sec (  0%)
 - post processing                        0.159 sec (  1%)
 - scc                                   12.201 sec ( 77%)
 - coulomb gradient                       0.149 sec (  0%)
 - dispersion gradient                    0.035 sec (  0%)
 - exchange gradient                      0.183 sec (  1%)
 - repulsion gradient                     0.007 sec (  0%)
 - acp gradient                           0.409 sec (  2%)
 - hamiltonian gradient                   0.610 sec (  3%)
 - gradient                               1.392 sec (  8%)

         :::::::::::::::::::::::::::::::::::::::::::::::::::::
         ::                     SUMMARY                     ::
         :::::::::::::::::::::::::::::::::::::::::::::::::::::
         :: total energy           -3197.380215799329 Eh    ::
         :: gradient norm              0.436454643142 Eh/a0 ::
         :: HOMO-LUMO gap              6.197987048223 eV    ::
         ::.................................................::
         :: add. restraining           0.000000000000 Eh    ::
         :: total charge              -2.000000000000 e     ::
         :::::::::::::::::::::::::::::::::::::::::::::::::::::

           -------------------------------------------------
          |                Property Printout                |
           -------------------------------------------------

    * Orbital Energies and Occupations
------------------------------------------------------------------
      #    Occupation            Energy/Eh            Energy/eV
------------------------------------------------------------------
      1        2.0000           -1.2251483             -33.3380
    ...           ...                  ...                  ...
    152        2.0000           -0.2167941              -5.8993
    153        2.0000           -0.2117289              -5.7614
    154        2.0000           -0.2104342              -5.7262
    155        2.0000           -0.2034396              -5.5359
    156        2.0000           -0.1957937              -5.3278
    157        2.0000           -0.1906921              -5.1890
    158        2.0000           -0.1826870              -4.9712
    159        2.0000           -0.1629647              -4.4345
    160        2.0000           -0.1489695              -4.0537
    161        2.0000           -0.1437650              -3.9120
    162        2.0000           -0.1348289              -3.6689
    163        2.0000           -0.1043372              -2.8392
    164        2.0000           -0.0976854              -2.6582 (HOMO)
    165                          0.1300864               3.5398 (LUMO)
    166                          0.1510647               4.1107
    167                          0.1551919               4.2230
    168                          0.1562974               4.2531
    169                          0.1663517               4.5267
    170                          0.1684982               4.5851
    171                          0.1721274               4.6838
    172                          0.1885128               5.1297
    173                          0.1949113               5.3038
    174                          0.2191743               5.9640
    175                          0.2449778               6.6662
    ...                                ...                  ...
    296                          1.0696019              29.1054
------------------------------------------------------------------
               HL-Gap            0.2277718 Eh            6.1980 eV
------------------------------------------------------------------

Atomic charges and shell populations (in atomic units):
-----------------------------------------------------------------
     #    Z                q          p(s)       p(p)       p(d)
-----------------------------------------------------------------
     1    7 N      -0.336179      1.359843   3.976336
     2    6 C       0.007743      1.138809   2.853448
     3    6 C       0.438238      1.106036   2.455726
     4    8 O      -0.510425      1.850870   4.659556
     5    7 N      -0.361075      1.391222   3.969853
     6    6 C       0.004280      1.105405   2.890314
     7    6 C       0.432489      1.114525   2.452985
     8    6 C      -0.001428      1.136225   2.865203
     9    8 O      -0.546046      1.848866   4.697180
    10    7 N      -0.316215      1.349557   3.966658
    11    6 C      -0.158901      1.153476   3.005425
    12    6 C       0.414770      1.100279   2.484951
    13    6 C      -0.231502      1.195666   3.035836
    14    6 C       0.006472      1.132265   2.861263
    15    8 O      -0.578057      1.855313   4.722744
    16    6 C       0.531134      1.068292   2.400574
    17    7 N      -0.288381      1.367004   3.921377
    18    6 C      -0.255350      1.207504   3.047846
    19    8 O      -0.645493      1.847574   4.797919
    20    8 O      -0.718473      1.858574   4.859900
    21    6 C       0.405575      1.097791   2.496634
    22    6 C       0.548881      1.065705   2.385414
    23    6 C       0.003530      1.121599   2.874871
    24    8 O      -0.597908      1.855442   4.742466
    25    8 O      -0.644787      1.842095   4.802692
    26    8 O      -0.683439      1.846579   4.836859
    27    7 N      -0.338137      1.368999   3.969138
    28    6 C      -0.166220      1.146936   3.019284
    29    6 C       0.399798      1.108113   2.492089
    30    6 C      -0.178346      1.169564   3.008782
    31    6 C       0.004041      1.138865   2.857094
    32    8 O      -0.554076      1.852941   4.701135
    33    6 C      -0.167580      1.173269   2.994311
    34    7 N      -0.326326      1.364273   3.962053
    35    6 C      -0.156512      1.154462   3.002050
    36    6 C      -0.086044      1.138673   2.947371
    37    6 C       0.418562      1.095962   2.485476
    38    6 C      -0.143527      1.163792   2.979735
    39    7 N      -0.532910      1.434498   4.098412
    40    6 C      -0.012746      1.122461   2.890285
    41    8 O      -0.549145      1.849052   4.700093
    42   16 S      -0.219359      1.883710   4.261149   0.074500
    43    7 N      -0.380559      1.358106   4.022452
    44    6 C      -0.098655      1.142010   2.956645
    45    6 C      -0.198358      1.192939   3.005419
    46    6 C       0.417463      1.107985   2.474552
    47    6 C      -0.247385      1.187847   3.059539
    48    6 C      -0.200659      1.142914   3.057745
    49    8 O      -0.494297      1.848731   4.645566
    50    6 C      -0.250950      1.164912   3.086038
    51    6 C      -0.179793      1.162062   3.017730
    52    6 C      -0.208235      1.159150   3.049085
    53    6 C      -0.067663      1.119121   2.948542
    54    7 N      -0.388016      1.358376   4.029640
    55    6 C       0.286906      1.100000   2.613093
    56    7 N      -0.530947      1.581516   3.949432
    57    7 N      -0.457436      1.450679   4.006757
    58    6 C      -0.272549      1.160819   3.111730
    59    1 H       0.267377      0.732623
    60    1 H       0.123397      0.876603
    61    1 H       0.276061      0.723939
    62    1 H       0.125614      0.874386
    63    1 H       0.110970      0.889030
    64    1 H       0.270858      0.729142
    65    1 H       0.072978      0.927022
    66    1 H       0.119246      0.880754
    67    1 H       0.090896      0.909104
    68    1 H       0.063160      0.936840
    69    1 H       0.132240      0.867760
    70    1 H       0.281674      0.718326
    71    1 H       0.068676      0.931324
    72    1 H       0.094649      0.905351
    73    1 H       0.125872      0.874128
    74    1 H       0.266326      0.733674
    75    1 H       0.088386      0.911614
    76    1 H       0.141190      0.858810
    77    1 H       0.089421      0.910579
    78    1 H       0.082046      0.917954
    79    1 H       0.111206      0.888794
    80    1 H       0.111414      0.888586
    81    1 H       0.065012      0.934988
    82    1 H       0.267743      0.732257
    83    1 H       0.106353      0.893647
    84    1 H       0.129077      0.870923
    85    1 H       0.074040      0.925960
    86    1 H       0.087999      0.912001
    87    1 H       0.112470      0.887530
    88    1 H       0.095043      0.904957
    89    1 H       0.232786      0.767214
    90    1 H       0.215285      0.784715
    91    1 H       0.125624      0.874376
    92    1 H       0.256998      0.743002
    93    1 H       0.114713      0.885287
    94    1 H       0.133753      0.866247
    95    1 H       0.120265      0.879735
    96    1 H       0.086757      0.913243
    97    1 H       0.089725      0.910275
    98    1 H       0.078425      0.921575
    99    1 H       0.089327      0.910673
   100    1 H       0.080136      0.919864
   101    1 H       0.101579      0.898421
   102    1 H       0.084819      0.915181
   103    1 H       0.090613      0.909387
   104    1 H       0.101193      0.898807
   105    1 H       0.108526      0.891474
   106    1 H       0.102203      0.897797
   107    1 H       0.117146      0.882854
   108    1 H       0.106729      0.893271
   109    1 H       0.097116      0.902884
   110    1 H       0.095424      0.904576
   111    1 H       0.269600      0.730400
   112    1 H       0.222857      0.777143
   113    1 H       0.234427      0.765573
   114    1 H       0.231030      0.768970
   115    1 H       0.140550      0.859450
   116    1 H       0.069488      0.930512
   117    1 H       0.111718      0.888282
-----------------------------------------------------------------


Wiberg/Mayer (AO) data.
largest (>0.10) Wiberg bond orders for each atom

 ---------------------------------------------------------------------------
     #   Z sym  total        # sym  WBO       # sym  WBO       # sym  WBO
 ---------------------------------------------------------------------------
     1   7 N    3.290 --     7 C    1.197     2 C    0.962    59 N    0.890
                             9 C    0.146
     2   6 C    3.934 --    51 C    0.983     1 N    0.962    60 N    0.935
                             3 C    0.913
     3   6 C    3.850 --     4 C    1.720     5 N    1.131     2 C    0.913
     4   8 C    1.992 --     3 C    1.720     5 N    0.147
     5   7 N    3.252 --     3 C    1.131     6 C    0.986    61 N    0.883
                             4 C    0.147
     6   6 C    3.952 --    58 C    1.004     5 N    0.986    62 N    0.926
                            46 C    0.914
     7   6 C    3.837 --     9 C    1.666     1 N    1.197     8 C    0.891
     8   6 C    3.925 --    11 C    1.004    10 N    0.947    63 N    0.940
                             7 C    0.891
     9   8 C    1.965 --     7 C    1.666     1 N    0.146
    10   7 N    3.360 --    12 C    1.267     8 C    0.947    64 N    0.882
                            15 C    0.157
    11   6 C    3.954 --     8 C    1.004    13 C    0.994    66 N    0.952
                            65 N    0.932
    12   6 C    3.865 --    15 C    1.613    10 N    1.267    14 C    0.899
    13   6 C    3.937 --    11 C    0.994    68 N    0.965    67 N    0.961
                            16 C    0.864
    14   6 C    3.907 --    18 C    0.993    17 N    0.945    69 N    0.936
                            12 C    0.899
    15   8 C    1.896 --    12 C    1.613    10 N    0.157
    16   6 C    3.864 --    19 C    1.555    20 C    1.428    13 C    0.864
    17   7 N    3.418 --    21 C    1.339    14 C    0.945    70 N    0.882
                            24 C    0.169
    18   6 C    3.913 --    14 C    0.993    71 N    0.963    72 N    0.962
                            22 C    0.798
    19   8 C    1.839 --    16 C    1.555    20 C    0.200
    20   8 C    1.709 --    16 C    1.428    19 C    0.200
    21   6 C    3.885 --    24 C    1.559    17 N    1.339    23 C    0.920
    22   6 C    3.859 --    25 C    1.550    26 C    1.489    18 C    0.798
    23   6 C    3.926 --    28 C    0.982    27 N    0.951    73 N    0.940
                            21 C    0.920
    24   8 C    1.873 --    21 C    1.559    17 N    0.169
    25   8 C    1.843 --    22 C    1.550    26 C    0.200
    26   8 C    1.785 --    22 C    1.489    25 C    0.200
    27   7 N    3.345 --    29 C    1.251    23 C    0.951    74 N    0.873
                            32 C    0.177
    28   6 C    3.953 --    30 C    1.018    23 C    0.982    75 N    0.951
                            76 N    0.932
    29   6 C    3.877 --    32 C    1.637    27 N    1.251    31 C    0.922
    30   6 C    3.963 --    28 C    1.018    33 C    0.983    78 N    0.961
                            77 N    0.950
    31   6 C    3.925 --    35 C    0.978    34 N    0.944    79 N    0.943
                            29 C    0.922
    32   8 C    1.931 --    29 C    1.637    27 N    0.177
    33   6 C    3.960 --    36 C    1.016    30 C    0.983    81 N    0.964
                            80 N    0.954
    34   7 N    3.337 --    37 C    1.254    31 C    0.944    82 N    0.877
                            41 C    0.165
    35   6 C    3.954 --    38 C    1.009    31 C    0.978    83 N    0.947
                            84 N    0.944
    36   6 C    3.955 --    33 C    1.016    39 N    1.002    86 N    0.961
                            85 N    0.955
    37   6 C    3.872 --    41 C    1.649    34 N    1.254    40 C    0.892
    38   6 C    3.943 --    35 C    1.009    42 O    0.987    88 N    0.954
                            87 N    0.953
    39   7 N    2.929 --    36 C    1.002    90 N    0.938    89 N    0.910
    40   6 C    3.938 --    43 N    0.992    44 C    0.978    91 N    0.933
                            37 C    0.892
    41   8 C    1.937 --    37 C    1.649    34 N    0.165
    42  16 O    2.085 --    45 C    0.996    38 C    0.987
    43   7 N    3.285 --    46 C    1.136    40 C    0.992    92 N    0.893
                            49 C    0.156
    44   6 C    3.970 --    48 C    0.992    47 C    0.991    40 C    0.978
                            93 N    0.945
    45   6 C    3.920 --    42 O    0.996    96 N    0.974    95 N    0.963
                            94 N    0.961
    46   6 C    3.854 --    49 C    1.728    43 N    1.136     6 C    0.914
    47   6 C    3.952 --    44 C    0.991    98 N    0.977    99 N    0.972
                            97 N    0.970
    48   6 C    3.969 --    50 C    1.028    44 C    0.992   100 N    0.959
                           101 N    0.953
    49   8 C    2.012 --    46 C    1.728    43 N    0.156
    50   6 C    3.959 --    48 C    1.028   102 N    0.972   103 N    0.972
                           104 N    0.966
    51   6 C    3.959 --    52 C    1.009     2 C    0.983   105 N    0.953
                           106 N    0.950
    52   6 C    3.958 --    51 C    1.009    53 C    0.992   108 N    0.956
                           107 N    0.952
    53   6 C    3.938 --    54 N    1.006    52 C    0.992   110 N    0.950
                           109 N    0.944
    54   7 N    3.179 --    55 C    1.068    53 C    1.006   111 N    0.893
                            56 N    0.112
    55   6 C    3.935 --    56 N    1.743    57 N    1.085    54 N    1.068
    56   7 N    2.904 --    55 C    1.743   112 N    0.908    54 N    0.112
    57   7 N    3.079 --    55 C    1.085   114 N    0.925   113 N    0.918
    58   6 C    3.951 --     6 C    1.004   116 N    0.972   117 N    0.963
                           115 N    0.954
    59   1 N    0.929 --     1 N    0.890
    60   1 N    0.985 --     2 C    0.935
    61   1 N    0.924 --     5 N    0.883
    62   1 N    0.984 --     6 C    0.926
    63   1 N    0.988 --     8 C    0.940
    64   1 N    0.927 --    10 N    0.882
    65   1 N    0.995 --    11 C    0.932
    66   1 N    0.986 --    11 C    0.952
    67   1 N    0.992 --    13 C    0.961
    68   1 N    0.996 --    13 C    0.965
    69   1 N    0.983 --    14 C    0.936
    70   1 N    0.921 --    17 N    0.882
    71   1 N    0.995 --    18 C    0.963
    72   1 N    0.991 --    18 C    0.962
    73   1 N    0.984 --    23 C    0.940
    74   1 N    0.929 --    27 N    0.873
    75   1 N    0.992 --    28 C    0.951
    76   1 N    0.980 --    28 C    0.932
    77   1 N    0.992 --    30 C    0.950
    78   1 N    0.993 --    30 C    0.961
    79   1 N    0.988 --    31 C    0.943
    80   1 N    0.988 --    33 C    0.954
    81   1 N    0.996 --    33 C    0.964
    82   1 N    0.928 --    34 N    0.877
    83   1 N    0.989 --    35 C    0.947
    84   1 N    0.983 --    35 C    0.944
    85   1 N    0.995 --    36 C    0.955
    86   1 N    0.992 --    36 C    0.961
    87   1 N    0.987 --    38 C    0.953
    88   1 N    0.991 --    38 C    0.954
    89   1 N    0.946 --    39 N    0.910
    90   1 N    0.954 --    39 N    0.938
    91   1 N    0.984 --    40 C    0.933
    92   1 N    0.934 --    43 N    0.893
    93   1 N    0.987 --    44 C    0.945
    94   1 N    0.982 --    45 C    0.961
    95   1 N    0.986 --    45 C    0.963
    96   1 N    0.992 --    45 C    0.974
    97   1 N    0.992 --    47 C    0.970
    98   1 N    0.994 --    47 C    0.977
    99   1 N    0.992 --    47 C    0.972
   100   1 N    0.994 --    48 C    0.959
   101   1 N    0.990 --    48 C    0.953
   102   1 N    0.993 --    50 C    0.972
   103   1 N    0.992 --    50 C    0.972
   104   1 N    0.990 --    50 C    0.966
   105   1 N    0.988 --    51 C    0.953
   106   1 N    0.990 --    51 C    0.950
   107   1 N    0.986 --    52 C    0.952
   108   1 N    0.989 --    52 C    0.956
   109   1 N    0.991 --    53 C    0.944
   110   1 N    0.991 --    53 C    0.950
   111   1 N    0.927 --    54 N    0.893
   112   1 N    0.950 --    56 N    0.908
   113   1 N    0.945 --    57 N    0.918
   114   1 N    0.947 --    57 N    0.925
   115   1 N    0.980 --    58 C    0.954
   116   1 N    0.995 --    58 C    0.972
   117   1 N    0.988 --    58 C    0.963
 ---------------------------------------------------------------------------

Topologies differ in total number of bonds
Writing topology from bond orders to xtbtopo.mol

Atomic dipole moments (in atomic units):
---------------------------------------------------------
     #    Z                 x            y            z
---------------------------------------------------------
           total     2.506169    14.363716    -0.886202
---------------------------------------------------------
         |total|    14.607621    37.128869 Debye


           -------------------------------------------------
          | TOTAL ENERGY            -3197.380215799329 Eh   |
          | GRADIENT NORM               0.436454643142 Eh/α |
           -------------------------------------------------

------------------------------------------------------------------------
 * finished run on 2026/05/23 at 12:26:54.650     
------------------------------------------------------------------------
 total:
 * wall-time:     0 d,  0 h,  0 min, 16.728 sec
 *  cpu-time:     0 d,  0 h,  0 min, 29.700 sec
 * ratio c/w:     1.776 speedup
 SCF:
 * wall-time:     0 d,  0 h,  0 min, 16.215 sec
 *  cpu-time:     0 d,  0 h,  0 min, 29.241 sec
 * ratio c/w:     1.803 speedup

normal termination of xtb
