      -----------------------------------------------------------      
     |                   =====================                   |     
     |                           x T B                           |     
     |                   =====================                   |     
     |                         S. Grimme                         |     
     |          Mulliken Center for Theoretical Chemistry        |     
     |                    University of Bonn                     |     
      -----------------------------------------------------------      

   * xtb version 6.7.1 (edcfbbe) compiled by 'albert@albert-system' on 2024-07-22

   xtb is free software: you can redistribute it and/or modify it under
   the terms of the GNU Lesser General Public License as published by
   the Free Software Foundation, either version 3 of the License, or
   (at your option) any later version.
   
   xtb is distributed in the hope that it will be useful,
   but WITHOUT ANY WARRANTY; without even the implied warranty of
   MERCHANTABILITY or FITNESS FOR A PARTICULAR PURPOSE.  See the
   GNU Lesser General Public License for more details.
   
   Cite this work as:
   * C. Bannwarth, E. Caldeweyher, S. Ehlert, A. Hansen, P. Pracht,
     J. Seibert, S. Spicher, S. Grimme, WIREs Comput. Mol. Sci., 2020, 11,
     e01493. DOI: 10.1002/wcms.1493
   
   for GFN2-xTB:
   * C. Bannwarth, S. Ehlert and S. Grimme., J. Chem. Theory Comput., 2019,
     15, 1652-1671. DOI: 10.1021/acs.jctc.8b01176
   for GFN1-xTB:
   * S. Grimme, C. Bannwarth, P. Shushkov, J. Chem. Theory Comput., 2017,
     13, 1989-2009. DOI: 10.1021/acs.jctc.7b00118
   for GFN0-xTB:
   * P. Pracht, E. Caldeweyher, S. Ehlert, S. Grimme, ChemRxiv, 2019, preprint.
     DOI: 10.26434/chemrxiv.8326202.v1
   for GFN-FF:
   * S. Spicher and S. Grimme, Angew. Chem. Int. Ed., 2020, 59, 15665-15673.
     DOI: 10.1002/anie.202004239
   
   for ALPB and GBSA implicit solvation:
   * S. Ehlert, M. Stahn, S. Spicher, S. Grimme, J. Chem. Theory Comput.,
     2021, 17, 4250-4261. DOI: 10.1021/acs.jctc.1c00471
   
   for ddCOSMO and CPCM-X implicit solvation:
   * M. Stahn, S. Ehlert, S. Grimme, J. Phys. Chem. A,
     2023, XX, XXXX-XXXX. DOI: 10.1021/acs.jpca.3c04382
   
   for DFT-D4:
   * E. Caldeweyher, C. Bannwarth and S. Grimme, J. Chem. Phys., 2017,
     147, 034112. DOI: 10.1063/1.4993215
   * E. Caldeweyher, S. Ehlert, A. Hansen, H. Neugebauer, S. Spicher,
     C. Bannwarth and S. Grimme, J. Chem. Phys., 2019, 150, 154122.
     DOI: 10.1063/1.5090222
   * E. Caldeweyher, J.-M. Mewes, S. Ehlert and S. Grimme, Phys. Chem. Chem. Phys.
     2020, 22, 8499-8512. DOI: 10.1039/D0CP00502A
   
   for sTDA-xTB:
   * S. Grimme and C. Bannwarth, J. Chem. Phys., 2016, 145, 054103.
     DOI: 10.1063/1.4959605
   
   in the mass-spec context:
   * V. Asgeirsson, C. Bauer and S. Grimme, Chem. Sci., 2017, 8, 4879.
     DOI: 10.1039/c7sc00601b
   * J. Koopman and S. Grimme, ACS Omega 2019, 4, 12, 15120-15133.
     DOI: 10.1021/acsomega.9b02011
   
   for metadynamics refer to:
   * S. Grimme, J. Chem. Theory Comput., 2019, 155, 2847-2862
     DOI: 10.1021/acs.jctc.9b00143
   
   for SPH calculations refer to:
   * S. Spicher and S. Grimme, J. Chem. Theory Comput., 2021, 17, 1701-1714
     DOI: 10.1021/acs.jctc.0c01306
   
   for ONIOM refer to:
   * C. Plett, A. Katbashev, S. Ehlert, S. Grimme, M. Bursch,
     Phys. Chem. Chem. Phys., 2023, 25, 17860-17868. DOI: 10.1039/D3CP02178E
   
   for DIPRO refer to:
   * J. Kohn, N. Gildemeister, S. Grimme, D. Fazzi, A. Hansen,
     J. Chem. Phys., 2023, just accepted.
   
   for PTB refer to:
   * S. Grimme, M. Mueller, A. Hansen, J. Chem. Phys., 2023, 158, 124111.
     DOI: 10.1063/5.0137838
   
   with help from (in alphabetical order)
   P. Atkinson, C. Bannwarth, F. Bohle, G. Brandenburg, E. Caldeweyher
   M. Checinski, S. Dohm, S. Ehlert, S. Ehrlich, I. Gerasimov, C. Hölzer
   A. Katbashev, J. Kohn, J. Koopman, C. Lavigne, S. Lehtola, F. März, M. Müller,
   F. Musil, H. Neugebauer, J. Pisarek, C. Plett, P. Pracht, F. Pultar,
   J. Seibert, P. Shushkov, S. Spicher, M. Stahn, M. Steiner, T. Strunk,
   J. Stückrath, T. Rose, and J. Unsleber
   
 * started run on 2026/05/23 at 12:41:30.934     
   ID    Z sym.   atoms
    1    7 N      1, 5, 10, 17, 18, 26, 33, 36, 42, 49, 54
    2    6 C      2, 3, 6-8, 11-14, 19-22, 24, 25, 27-30, 32, 34, 37, 39, 40,
                  43-45, 47, 50-52, 55
    3    8 O      4, 9, 15, 16, 23, 31, 35, 38, 41, 46, 48, 53, 56
    4    1 H      57-109

           -------------------------------------------------
          |                Calculation Setup                |
           -------------------------------------------------

          program call               : /home/xchen/software/xtb-6.7.1/xtb-dist/bin/xtb /home/xchen/Test/benchmark/md_sampled/08_7_0366_0/snap_0089.xyz --charge 0 --gfn 2 --norestart
          coordinate file            : /home/xchen/Test/benchmark/md_sampled/08_7_0366_0/snap_0089.xyz
          omp threads                :                    48


           -------------------------------------------------
          |                 G F N 2 - x T B                 |
           -------------------------------------------------

        Reference                      10.1021/acs.jctc.8b01176
      * Hamiltonian:
        H0-scaling (s, p, d)           1.850000    2.230000    2.230000
        zeta-weighting                 0.500000
      * Dispersion:
        s8                             2.700000
        a1                             0.520000
        a2                             5.000000
        s9                             5.000000
      * Repulsion:
        kExp                           1.500000    1.000000
        rExp                           1.000000
      * Coulomb:
        alpha                          2.000000
        third order                    shell-resolved
        anisotropic                    true
        a3                             3.000000
        a5                             4.000000
        cn-shift                       1.200000
        cn-exp                         4.000000
        max-rad                        5.000000


          ...................................................
          :                      SETUP                      :
          :.................................................:
          :  # basis functions                 277          :
          :  # atomic orbitals                 277          :
          :  # shells                          165          :
          :  # electrons                       314          :
          :  max. iterations                   250          :
          :  Hamiltonian                  GFN2-xTB          :
          :  restarted?                      false          :
          :  GBSA solvation                  false          :
          :  PC potential                    false          :
          :  electronic temp.          300.0000000     K    :
          :  accuracy                    1.0000000          :
          :  -> integral cutoff          0.2500000E+02      :
          :  -> integral neglect         0.1000000E-07      :
          :  -> SCF convergence          0.1000000E-05 Eh   :
          :  -> wf. convergence          0.1000000E-03 e    :
          :  Broyden damping             0.4000000          :
          :  net charge                          0          :
          :  unpaired electrons                  0          :
          ...................................................

 iter      E             dE          RMSdq      gap      omega  full diag
   1   -181.8574033 -0.181857E+03  0.437E+00    3.89       0.0  T
   2   -182.4039002 -0.546497E+00  0.231E+00    3.53       1.0  T
   3   -182.4325124 -0.286122E-01  0.128E+00    3.69       1.0  T
   4   -182.4368114 -0.429903E-02  0.237E-01    3.36       1.0  T
   5   -182.4411286 -0.431720E-02  0.957E-02    3.41       1.0  T
   6   -182.4411973 -0.687536E-04  0.408E-02    3.42       1.0  T
   7   -182.4412113 -0.139464E-04  0.149E-02    3.43       1.0  T
   8   -182.4412178 -0.651791E-05  0.530E-03    3.43       1.8  T
   9   -182.4412184 -0.560177E-06  0.226E-03    3.43       4.2  T
  10   -182.4412184 -0.475172E-07  0.865E-04    3.43      11.1  T
  11   -182.4412184 -0.259469E-07  0.235E-04    3.43      40.8  T

   *** convergence criteria satisfied after 11 iterations ***

         #    Occupation            Energy/Eh            Energy/eV
      -------------------------------------------------------------
         1        2.0000           -0.7308926             -19.8886
       ...           ...                  ...                  ...
       151        2.0000           -0.3935787             -10.7098
       152        2.0000           -0.3913955             -10.6504
       153        2.0000           -0.3886597             -10.5760
       154        2.0000           -0.3857030             -10.4955
       155        2.0000           -0.3823782             -10.4050
       156        2.0000           -0.3769872             -10.2583
       157        2.0000           -0.3717070             -10.1147 (HOMO)
       158                         -0.2457336              -6.6868 (LUMO)
       159                         -0.2405088              -6.5446
       160                         -0.2361278              -6.4254
       161                         -0.2314159              -6.2971
       162                         -0.2274891              -6.1903
       ...                                ...                  ...
       277                          0.7944690              21.6186
      -------------------------------------------------------------
                  HL-Gap            0.1259734 Eh            3.4279 eV
             Fermi-level           -0.3087203 Eh           -8.4007 eV

 SCC (total)                   0 d,  0 h,  0 min, 17.864 sec
 SCC setup                      ...        0 min,  0.038 sec (  0.212%)
 Dispersion                     ...        0 min,  0.141 sec (  0.790%)
 classical contributions        ...        0 min,  0.006 sec (  0.031%)
 integral evaluation            ...        0 min,  0.477 sec (  2.671%)
 iterations                     ...        0 min, 16.300 sec ( 91.244%)
 molecular gradient             ...        0 min,  0.877 sec (  4.912%)
 printout                       ...        0 min,  0.025 sec (  0.139%)

         :::::::::::::::::::::::::::::::::::::::::::::::::::::
         ::                     SUMMARY                     ::
         :::::::::::::::::::::::::::::::::::::::::::::::::::::
         :: total energy            -180.521045042617 Eh    ::
         :: gradient norm              0.392259566144 Eh/a0 ::
         :: HOMO-LUMO gap              3.427911747326 eV    ::
         ::.................................................::
         :: SCC energy              -182.432776502675 Eh    ::
         :: -> isotropic ES            0.474356801960 Eh    ::
         :: -> anisotropic ES          0.005075194069 Eh    ::
         :: -> anisotropic XC          0.044055680994 Eh    ::
         :: -> dispersion             -0.133514202535 Eh    ::
         :: repulsion energy           1.911731460058 Eh    ::
         :: add. restraining           0.000000000000 Eh    ::
         :: total charge              -0.000000000000 e     ::
         :::::::::::::::::::::::::::::::::::::::::::::::::::::

           -------------------------------------------------
          |                Property Printout                |
           -------------------------------------------------

    * Orbital Energies and Occupations

         #    Occupation            Energy/Eh            Energy/eV
      -------------------------------------------------------------
         1        2.0000           -0.7308926             -19.8886
       ...           ...                  ...                  ...
       145        2.0000           -0.4131228             -11.2416
       146        2.0000           -0.4098748             -11.1533
       147        2.0000           -0.4085955             -11.1185
       148        2.0000           -0.4047333             -11.0134
       149        2.0000           -0.3975103             -10.8168
       150        2.0000           -0.3965629             -10.7910
       151        2.0000           -0.3935787             -10.7098
       152        2.0000           -0.3913955             -10.6504
       153        2.0000           -0.3886597             -10.5760
       154        2.0000           -0.3857030             -10.4955
       155        2.0000           -0.3823782             -10.4050
       156        2.0000           -0.3769872             -10.2583
       157        2.0000           -0.3717070             -10.1147 (HOMO)
       158                         -0.2457336              -6.6868 (LUMO)
       159                         -0.2405088              -6.5446
       160                         -0.2361278              -6.4254
       161                         -0.2314159              -6.2971
       162                         -0.2274891              -6.1903
       163                         -0.2247568              -6.1159
       164                         -0.2223932              -6.0516
       165                         -0.2139336              -5.8214
       166                         -0.2125518              -5.7838
       167                         -0.2081494              -5.6640
       168                         -0.2039398              -5.5495
       ...                                ...                  ...
       277                          0.7944690              21.6186
      -------------------------------------------------------------
                  HL-Gap            0.1259734 Eh            3.4279 eV
             Fermi-level           -0.3087203 Eh           -8.4007 eV

     #   Z          covCN         q      C6AA      α(0)
     1   7 N        2.667    -0.190    25.113     7.443
     2   6 C        3.777    -0.002    20.638     6.472
     3   6 C        2.737     0.281    22.238     7.721
     4   8 O        0.857    -0.408    21.843     6.266
     5   7 N        2.685    -0.215    25.695     7.528
     6   6 C        3.802    -0.001    20.601     6.462
     7   6 C        2.750     0.266    22.515     7.770
     8   6 C        3.783     0.040    19.921     6.358
     9   8 O        0.856    -0.419    22.071     6.299
    10   7 N        2.703    -0.218    25.745     7.536
    11   6 C        3.822    -0.093    22.250     6.713
    12   6 C        2.753     0.260    22.613     7.787
    13   6 C        2.739     0.284    22.180     7.711
    14   6 C        3.793     0.017    20.300     6.416
    15   8 O        0.858    -0.423    22.142     6.309
    16   8 O        0.857    -0.402    21.719     6.248
    17   7 N        2.628    -0.270    27.002     7.717
    18   7 N        2.682    -0.188    25.082     7.438
    19   6 C        3.809    -0.068    21.794     6.645
    20   6 C        2.765     0.261    22.599     7.785
    21   6 C        3.846    -0.015    20.813     6.489
    22   6 C        3.790     0.030    20.080     6.382
    23   8 O        0.860    -0.441    22.512     6.361
    24   6 C        3.746    -0.123    22.925     6.830
    25   6 C        3.741    -0.106    22.606     6.783
    26   7 N        2.720    -0.191    25.144     7.447
    27   6 C        3.796    -0.063    21.716     6.636
    28   6 C        2.773     0.270    22.446     7.759
    29   6 C        3.807    -0.097    22.347     6.730
    30   6 C        3.808    -0.006    20.688     6.475
    31   8 O        0.856    -0.401    21.700     6.245
    32   6 C        2.739     0.280    22.262     7.725
    33   7 N        2.683    -0.139    24.007     7.277
    34   6 C        3.702     0.095    19.157     6.259
    35   8 O        0.865    -0.455    22.810     6.403
    36   7 N        2.647    -0.248    26.461     7.640
    37   6 C        2.755     0.265    22.526     7.772
    38   8 O        1.626    -0.506    23.043     6.479
    39   6 C        3.730    -0.114    22.778     6.813
    40   6 C        3.783     0.023    20.208     6.404
    41   8 O        0.857    -0.446    22.622     6.377
    42   7 N        2.699    -0.185    25.015     7.428
    43   6 C        3.793    -0.069    21.837     6.655
    44   6 C        2.756     0.300    21.900     7.663
    45   6 C        3.799    -0.097    22.359     6.733
    46   8 O        0.862    -0.414    21.951     6.282
    47   6 C        2.740     0.275    22.341     7.739
    48   8 O        0.858    -0.424    22.171     6.313
    49   7 N        2.630    -0.280    27.247     7.752
    50   6 C        3.799    -0.070    21.850     6.656
    51   6 C        3.764    -0.087    22.196     6.715
    52   6 C        2.750     0.288    22.112     7.700
    53   8 O        0.858    -0.415    21.983     6.286
    54   7 N        2.641    -0.278    27.182     7.743
    55   6 C        3.683     0.082    19.409     6.308
    56   8 O        1.657    -0.420    21.246     6.222
    57   1 H        0.860     0.185     1.188     1.708
    58   1 H        0.928     0.106     1.730     2.057
    59   1 H        0.862     0.190     1.158     1.685
    60   1 H        0.910     0.097     1.814     2.107
    61   1 H        0.923     0.088     1.900     2.156
    62   1 H        0.860     0.174     1.248     1.750
    63   1 H        0.923     0.064     2.158     2.297
    64   1 H        0.924     0.055     2.265     2.353
    65   1 H        0.926     0.093     1.850     2.127
    66   1 H        0.862     0.194     1.135     1.669
    67   1 H        0.853     0.189     1.164     1.690
    68   1 H        0.860     0.204     1.088     1.634
    69   1 H        0.928     0.085     1.927     2.170
    70   1 H        0.911     0.008     2.925     2.675
    71   1 H        0.927     0.044     2.395     2.420
    72   1 H        0.902     0.099     1.800     2.099
    73   1 H        0.922     0.051     2.312     2.378
    74   1 H        0.924     0.042     2.428     2.437
    75   1 H        0.926     0.048     2.343     2.394
    76   1 H        0.924     0.030     2.590     2.517
    77   1 H        0.918     0.017     2.788     2.611
    78   1 H        0.921     0.038     2.473     2.459
    79   1 H        0.859     0.206     1.076     1.625
    80   1 H        0.923     0.065     2.143     2.290
    81   1 H        0.924     0.040     2.445     2.445
    82   1 H        0.926     0.056     2.242     2.341
    83   1 H        0.927     0.071     2.079     2.255
    84   1 H        0.927     0.103     1.757     2.073
    85   1 H        0.861     0.196     1.128     1.664
    86   1 H        0.927     0.031     2.565     2.505
    87   1 H        0.859     0.210     1.059     1.612
    88   1 H        0.861     0.196     1.125     1.661
    89   1 H        0.790     0.327     0.648     1.266
    90   1 H        0.927     0.069     2.094     2.263
    91   1 H        0.902     0.045     2.382     2.415
    92   1 H        0.927     0.058     2.224     2.332
    93   1 H        0.926     0.074     2.038     2.232
    94   1 H        0.858     0.177     1.232     1.739
    95   1 H        0.923     0.052     2.295     2.369
    96   1 H        0.920     0.043     2.406     2.426
    97   1 H        0.927     0.055     2.263     2.353
    98   1 H        0.928     0.092     1.855     2.130
    99   1 H        0.859     0.194     1.136     1.670
   100   1 H        0.860     0.182     1.201     1.716
   101   1 H        0.928     0.097     1.809     2.103
   102   1 H        0.922     0.072     2.064     2.247
   103   1 H        0.881     0.055     2.268     2.358
   104   1 H        0.923     0.044     2.391     2.418
   105   1 H        0.860     0.178     1.224     1.733
   106   1 H        0.858     0.191     1.152     1.682
   107   1 H        0.918     0.041     2.439     2.442
   108   1 H        0.928     0.035     2.516     2.480
   109   1 H        0.804     0.314     0.682     1.297

 Mol. C6AA /au·bohr⁶  :     113067.692491
 Mol. C8AA /au·bohr⁸  :    2501163.493850
 Mol. α(0) /au        :        499.641389


Wiberg/Mayer (AO) data.
largest (>0.10) Wiberg bond orders for each atom

 ---------------------------------------------------------------------------
     #   Z sym  total        # sym  WBO       # sym  WBO       # sym  WBO
 ---------------------------------------------------------------------------
     1   7 N    3.388 --     7 C    1.264     2 C    0.933    57 H    0.928
                             9 O    0.182
     2   6 C    3.939 --    50 C    0.987    58 H    0.952     1 N    0.933
                             3 C    0.902
     3   6 C    3.936 --     4 O    1.718     5 N    1.249     2 C    0.902
     4   8 O    2.066 --     3 C    1.718     5 N    0.184
     5   7 N    3.400 --     3 C    1.249     6 C    0.946    59 H    0.934
                             4 O    0.184
     6   6 C    3.954 --    55 C    0.970    44 C    0.950     5 N    0.946
                            60 H    0.944
     7   6 C    3.944 --     9 O    1.717     1 N    1.264     8 C    0.883
     8   6 C    3.958 --    11 C    1.014    10 N    0.978    61 H    0.945
                             7 C    0.883
     9   8 O    2.026 --     7 C    1.717     1 N    0.182
    10   7 N    3.370 --    12 C    1.187     8 C    0.978    62 H    0.920
                            15 O    0.179
    11   6 C    3.989 --     8 C    1.014    64 H    0.963    63 H    0.959
                            13 C    0.927
    12   6 C    3.949 --    15 O    1.715    10 N    1.187    14 C    0.964
    13   6 C    3.946 --    16 O    1.746    17 N    1.242    11 C    0.927
    14   6 C    3.969 --    18 N    0.980    19 C    0.971    12 C    0.964
                            65 H    0.929
    15   8 O    2.015 --    12 C    1.715    10 N    0.179
    16   8 O    2.042 --    13 C    1.746    17 N    0.192
    17   7 N    3.343 --    13 C    1.242    66 H    0.943    67 H    0.939
                            16 O    0.192
    18   7 N    3.396 --    20 C    1.228    14 C    0.980    68 H    0.921
                            23 O    0.185
    19   6 C    3.986 --    21 C    1.004    14 C    0.971    69 H    0.956
                            70 H    0.950
    20   6 C    3.945 --    23 O    1.687    18 N    1.228    22 C    0.948
    21   6 C    3.994 --    25 C    1.004    19 C    1.004    24 C    0.997
                            71 H    0.965
    22   6 C    3.972 --    26 N    1.041    27 C    0.961    20 C    0.948
                            72 H    0.908
    23   8 O    1.999 --    20 C    1.687    18 N    0.185
    24   6 C    3.989 --    21 C    0.997    75 H    0.987    74 H    0.987
                            73 H    0.969
    25   6 C    3.990 --    21 C    1.004    76 H    0.987    77 H    0.986
                            78 H    0.981
    26   7 N    3.409 --    28 C    1.192    22 C    1.041    79 H    0.895
                            31 O    0.187
    27   6 C    3.985 --    29 C    0.987    81 H    0.973    80 H    0.972
                            22 C    0.961
    28   6 C    3.952 --    31 O    1.716    26 N    1.192    30 C    0.957
    29   6 C    3.988 --    27 C    0.987    82 H    0.973    83 H    0.963
                            32 C    0.958
    30   6 C    3.956 --    33 N    0.993    28 C    0.957    84 H    0.945
                            34 C    0.925
    31   8 O    2.050 --    28 C    1.716    26 N    0.187
    32   6 C    3.935 --    35 O    1.618    36 N    1.325    29 C    0.958
    33   7 N    3.478 --    37 C    1.284    30 C    0.993    85 H    0.922
                            41 O    0.201
    34   6 C    3.957 --    39 C    1.009    86 H    0.978    38 O    0.973
                            30 C    0.925
    35   8 O    2.017 --    32 C    1.618    36 N    0.194
    36   7 N    3.425 --    32 C    1.325    88 H    0.938    87 H    0.930
                            35 O    0.194
    37   6 C    3.957 --    41 O    1.652    33 N    1.284    40 C    0.954
    38   8 O    1.928 --    34 C    0.973    89 H    0.808
    39   6 C    3.990 --    34 C    1.009    90 H    0.985    92 H    0.984
                            91 H    0.978
    40   6 C    3.968 --    42 N    0.981    43 C    0.963    93 H    0.955
                            37 C    0.954
    41   8 O    1.972 --    37 C    1.652    33 N    0.201
    42   7 N    3.419 --    44 C    1.222    40 C    0.981    94 H    0.929
                            46 O    0.195
    43   6 C    3.990 --    45 C    0.991    96 H    0.978    95 H    0.973
                            40 C    0.963
    44   6 C    3.956 --    46 O    1.709    42 N    1.222     6 C    0.950
    45   6 C    3.991 --    43 C    0.991    97 H    0.976    98 H    0.960
                            47 C    0.951
    46   8 O    2.039 --    44 C    1.709    42 N    0.195
    47   6 C    3.934 --    48 O    1.713    49 N    1.220    45 C    0.951
    48   8 O    2.025 --    47 C    1.713    49 N    0.195
    49   7 N    3.341 --    47 C    1.220   100 H    0.947    99 H    0.943
                            48 O    0.195
    50   6 C    3.979 --    51 C    0.989     2 C    0.987   102 H    0.974
                           101 H    0.966
    51   6 C    3.991 --    50 C    0.989    52 C    0.986   104 H    0.972
                           103 H    0.941
    52   6 C    3.952 --    53 O    1.706    54 N    1.232    51 C    0.986
    53   8 O    2.025 --    52 C    1.706    54 N    0.198
    54   7 N    3.355 --    52 C    1.232   105 H    0.947   106 H    0.940
                            53 O    0.198
    55   6 C    3.966 --    56 O    1.026     6 C    0.970   108 H    0.965
                           107 H    0.958
    56   8 O    1.974 --    55 C    1.026   109 H    0.881
    57   1 H    0.966 --     1 N    0.928
    58   1 H    0.989 --     2 C    0.952
    59   1 H    0.964 --     5 N    0.934
    60   1 H    0.990 --     6 C    0.944
    61   1 H    0.992 --     8 C    0.945
    62   1 H    0.970 --    10 N    0.920
    63   1 H    0.996 --    11 C    0.959
    64   1 H    0.996 --    11 C    0.963
    65   1 H    0.991 --    14 C    0.929
    66   1 H    0.962 --    17 N    0.943
    67   1 H    0.963 --    17 N    0.939
    68   1 H    0.959 --    18 N    0.921
    69   1 H    0.993 --    19 C    0.956
    70   1 H    0.999 --    19 C    0.950
    71   1 H    0.998 --    21 C    0.965
    72   1 H    0.990 --    22 C    0.908
    73   1 H    0.997 --    24 C    0.969
    74   1 H    0.998 --    24 C    0.987
    75   1 H    0.997 --    24 C    0.987
    76   1 H    0.999 --    25 C    0.987
    77   1 H    0.999 --    25 C    0.986
    78   1 H    0.998 --    25 C    0.981
    79   1 H    0.958 --    26 N    0.895
    80   1 H    0.995 --    27 C    0.972
    81   1 H    0.998 --    27 C    0.973
    82   1 H    0.997 --    29 C    0.973
    83   1 H    0.995 --    29 C    0.963
    84   1 H    0.989 --    30 C    0.945
    85   1 H    0.962 --    33 N    0.922
    86   1 H    0.999 --    34 C    0.978
    87   1 H    0.956 --    36 N    0.930
    88   1 H    0.961 --    36 N    0.938
    89   1 H    0.893 --    38 O    0.808
    90   1 H    0.995 --    39 C    0.985
    91   1 H    0.998 --    39 C    0.978
    92   1 H    0.996 --    39 C    0.984
    93   1 H    0.994 --    40 C    0.955
    94   1 H    0.968 --    42 N    0.929
    95   1 H    0.997 --    43 C    0.973
    96   1 H    0.998 --    43 C    0.978
    97   1 H    0.997 --    45 C    0.976
    98   1 H    0.991 --    45 C    0.960
    99   1 H    0.962 --    49 N    0.943
   100   1 H    0.967 --    49 N    0.947
   101   1 H    0.990 --    50 C    0.966
   102   1 H    0.994 --    50 C    0.974
   103   1 H    0.997 --    51 C    0.941
   104   1 H    0.998 --    51 C    0.972
   105   1 H    0.968 --    54 N    0.947
   106   1 H    0.963 --    54 N    0.940
   107   1 H    0.998 --    55 C    0.958
   108   1 H    0.999 --    55 C    0.965
   109   1 H    0.902 --    56 O    0.881
 ---------------------------------------------------------------------------

Topologies differ in total number of bonds
Writing topology from bond orders to xtbtopo.mol

molecular dipole:
                 x           y           z       tot (Debye)
 q only:        0.717      -2.566       3.227
   full:        0.777      -3.179       3.595      12.357
molecular quadrupole (traceless):
                xx          xy          yy          xz          yz          zz
 q only:       27.516      36.711      26.409      21.396     -10.536     -53.924
  q+dip:       30.606      48.028      35.598      29.029     -12.655     -66.204
   full:       30.599      48.452      34.189      28.531     -12.559     -64.787


           -------------------------------------------------
          | TOTAL ENERGY             -180.521045042617 Eh   |
          | GRADIENT NORM               0.392259566144 Eh/α |
          | HOMO-LUMO GAP               3.427911747326 eV   |
           -------------------------------------------------

------------------------------------------------------------------------
 * finished run on 2026/05/23 at 12:41:50.109     
------------------------------------------------------------------------
 total:
 * wall-time:     0 d,  0 h,  0 min, 19.174 sec
 *  cpu-time:     0 d,  0 h,  0 min, 23.165 sec
 * ratio c/w:     1.208 speedup
 SCF:
 * wall-time:     0 d,  0 h,  0 min, 17.866 sec
 *  cpu-time:     0 d,  0 h,  0 min, 21.935 sec
 * ratio c/w:     1.228 speedup

normal termination of xtb
