      -----------------------------------------------------------      
     |                   =====================                   |     
     |                           x T B                           |     
     |                   =====================                   |     
     |                         S. Grimme                         |     
     |          Mulliken Center for Theoretical Chemistry        |     
     |                    University of Bonn                     |     
      -----------------------------------------------------------      

   * xtb version 6.7.1 (edcfbbe) compiled by 'albert@albert-system' on 2024-07-22

   xtb is free software: you can redistribute it and/or modify it under
   the terms of the GNU Lesser General Public License as published by
   the Free Software Foundation, either version 3 of the License, or
   (at your option) any later version.
   
   xtb is distributed in the hope that it will be useful,
   but WITHOUT ANY WARRANTY; without even the implied warranty of
   MERCHANTABILITY or FITNESS FOR A PARTICULAR PURPOSE.  See the
   GNU Lesser General Public License for more details.
   
   Cite this work as:
   * C. Bannwarth, E. Caldeweyher, S. Ehlert, A. Hansen, P. Pracht,
     J. Seibert, S. Spicher, S. Grimme, WIREs Comput. Mol. Sci., 2020, 11,
     e01493. DOI: 10.1002/wcms.1493
   
   for GFN2-xTB:
   * C. Bannwarth, S. Ehlert and S. Grimme., J. Chem. Theory Comput., 2019,
     15, 1652-1671. DOI: 10.1021/acs.jctc.8b01176
   for GFN1-xTB:
   * S. Grimme, C. Bannwarth, P. Shushkov, J. Chem. Theory Comput., 2017,
     13, 1989-2009. DOI: 10.1021/acs.jctc.7b00118
   for GFN0-xTB:
   * P. Pracht, E. Caldeweyher, S. Ehlert, S. Grimme, ChemRxiv, 2019, preprint.
     DOI: 10.26434/chemrxiv.8326202.v1
   for GFN-FF:
   * S. Spicher and S. Grimme, Angew. Chem. Int. Ed., 2020, 59, 15665-15673.
     DOI: 10.1002/anie.202004239
   
   for ALPB and GBSA implicit solvation:
   * S. Ehlert, M. Stahn, S. Spicher, S. Grimme, J. Chem. Theory Comput.,
     2021, 17, 4250-4261. DOI: 10.1021/acs.jctc.1c00471
   
   for ddCOSMO and CPCM-X implicit solvation:
   * M. Stahn, S. Ehlert, S. Grimme, J. Phys. Chem. A,
     2023, XX, XXXX-XXXX. DOI: 10.1021/acs.jpca.3c04382
   
   for DFT-D4:
   * E. Caldeweyher, C. Bannwarth and S. Grimme, J. Chem. Phys., 2017,
     147, 034112. DOI: 10.1063/1.4993215
   * E. Caldeweyher, S. Ehlert, A. Hansen, H. Neugebauer, S. Spicher,
     C. Bannwarth and S. Grimme, J. Chem. Phys., 2019, 150, 154122.
     DOI: 10.1063/1.5090222
   * E. Caldeweyher, J.-M. Mewes, S. Ehlert and S. Grimme, Phys. Chem. Chem. Phys.
     2020, 22, 8499-8512. DOI: 10.1039/D0CP00502A
   
   for sTDA-xTB:
   * S. Grimme and C. Bannwarth, J. Chem. Phys., 2016, 145, 054103.
     DOI: 10.1063/1.4959605
   
   in the mass-spec context:
   * V. Asgeirsson, C. Bauer and S. Grimme, Chem. Sci., 2017, 8, 4879.
     DOI: 10.1039/c7sc00601b
   * J. Koopman and S. Grimme, ACS Omega 2019, 4, 12, 15120-15133.
     DOI: 10.1021/acsomega.9b02011
   
   for metadynamics refer to:
   * S. Grimme, J. Chem. Theory Comput., 2019, 155, 2847-2862
     DOI: 10.1021/acs.jctc.9b00143
   
   for SPH calculations refer to:
   * S. Spicher and S. Grimme, J. Chem. Theory Comput., 2021, 17, 1701-1714
     DOI: 10.1021/acs.jctc.0c01306
   
   for ONIOM refer to:
   * C. Plett, A. Katbashev, S. Ehlert, S. Grimme, M. Bursch,
     Phys. Chem. Chem. Phys., 2023, 25, 17860-17868. DOI: 10.1039/D3CP02178E
   
   for DIPRO refer to:
   * J. Kohn, N. Gildemeister, S. Grimme, D. Fazzi, A. Hansen,
     J. Chem. Phys., 2023, just accepted.
   
   for PTB refer to:
   * S. Grimme, M. Mueller, A. Hansen, J. Chem. Phys., 2023, 158, 124111.
     DOI: 10.1063/5.0137838
   
   with help from (in alphabetical order)
   P. Atkinson, C. Bannwarth, F. Bohle, G. Brandenburg, E. Caldeweyher
   M. Checinski, S. Dohm, S. Ehlert, S. Ehrlich, I. Gerasimov, C. Hölzer
   A. Katbashev, J. Kohn, J. Koopman, C. Lavigne, S. Lehtola, F. März, M. Müller,
   F. Musil, H. Neugebauer, J. Pisarek, C. Plett, P. Pracht, F. Pultar,
   J. Seibert, P. Shushkov, S. Spicher, M. Stahn, M. Steiner, T. Strunk,
   J. Stückrath, T. Rose, and J. Unsleber
   
 * started run on 2026/05/23 at 08:14:12.277     
   ID    Z sym.   atoms
    1    7 N      1, 5, 10, 17, 23, 28, 35
    2    6 C      2, 3, 6-8, 11-14, 16, 20, 21, 24-26, 29, 31-34, 36-40
    3    8 O      4, 9, 15, 18, 19, 22, 27, 30
    4    1 H      41-70

           -------------------------------------------------
          |                Calculation Setup                |
           -------------------------------------------------

          program call               : /home/xchen/software/xtb-6.7.1/xtb-dist/bin/xtb /home/xchen/Test/benchmark/md_sampled/01_6_0109_n1/snap_0050.xyz --charge -1 --gfn 2 --norestart
          coordinate file            : /home/xchen/Test/benchmark/md_sampled/01_6_0109_n1/snap_0050.xyz
          omp threads                :                    48


           -------------------------------------------------
          |                 G F N 2 - x T B                 |
           -------------------------------------------------

        Reference                      10.1021/acs.jctc.8b01176
      * Hamiltonian:
        H0-scaling (s, p, d)           1.850000    2.230000    2.230000
        zeta-weighting                 0.500000
      * Dispersion:
        s8                             2.700000
        a1                             0.520000
        a2                             5.000000
        s9                             5.000000
      * Repulsion:
        kExp                           1.500000    1.000000
        rExp                           1.000000
      * Coulomb:
        alpha                          2.000000
        third order                    shell-resolved
        anisotropic                    true
        a3                             3.000000
        a5                             4.000000
        cn-shift                       1.200000
        cn-exp                         4.000000
        max-rad                        5.000000


          ...................................................
          :                      SETUP                      :
          :.................................................:
          :  # basis functions                 190          :
          :  # atomic orbitals                 190          :
          :  # shells                          110          :
          :  # electrons                       214          :
          :  max. iterations                   250          :
          :  Hamiltonian                  GFN2-xTB          :
          :  restarted?                      false          :
          :  GBSA solvation                  false          :
          :  PC potential                    false          :
          :  electronic temp.          300.0000000     K    :
          :  accuracy                    1.0000000          :
          :  -> integral cutoff          0.2500000E+02      :
          :  -> integral neglect         0.1000000E-07      :
          :  -> SCF convergence          0.1000000E-05 Eh   :
          :  -> wf. convergence          0.1000000E-03 e    :
          :  Broyden damping             0.4000000          :
          :  net charge                         -1          :
          :  unpaired electrons                  0          :
          ...................................................

 iter      E             dE          RMSdq      gap      omega  full diag
   1   -122.9836673 -0.122984E+03  0.455E+00    3.22       0.0  T
   2   -123.3670290 -0.383362E+00  0.243E+00    2.32       1.0  T
   3   -123.3897257 -0.226967E-01  0.140E+00    0.93       1.0  T
   4   -122.0028725  0.138685E+01  0.271E+00    0.05       1.0  T
   5   -123.3919086 -0.138904E+01  0.405E-01    0.94       1.0  T
   6   -123.4015959 -0.968722E-02  0.153E-01    0.60       1.0  T
   7   -123.4020286 -0.432786E-03  0.108E-01    0.64       1.0  T
   8   -123.4021029 -0.742923E-04  0.795E-02    0.65       1.0  T
   9   -123.4021539 -0.509296E-04  0.713E-02    0.62       1.0  T
  10   -123.4022004 -0.465635E-04  0.652E-02    0.57       1.0  T
  11   -123.4022377 -0.372232E-04  0.604E-02    0.53       1.0  T
  12   -123.4022674 -0.297932E-04  0.562E-02    0.50       1.0  T
  13   -123.4023159 -0.484128E-04  0.491E-02    0.44       1.0  T
  14   -123.4024740 -0.158124E-03  0.271E-02    0.30       1.0  T
  15   -123.4025623 -0.882744E-04  0.116E-02    0.22       1.0  T
  16   -123.4019948  0.567455E-03  0.564E-02    0.17       1.0  T
  17   -123.4021209 -0.126091E-03  0.501E-02    0.18       1.0  T
  18   -123.4022451 -0.124169E-03  0.428E-02    0.18       1.0  T
  19   -123.4025185 -0.273445E-03  0.190E-02    0.21       1.0  T
  20   -123.4025639 -0.454372E-04  0.104E-02    0.22       1.1  T
  21   -123.4025805 -0.165644E-04  0.385E-03    0.23       3.1  T
  22   -123.4025829 -0.242098E-05  0.963E-04    0.23      12.4  T
  23   -123.4025831 -0.158474E-06  0.930E-05    0.23     128.5  T
  24   -123.4025831 -0.784937E-09  0.582E-05    0.23     205.5  T

   *** convergence criteria satisfied after 24 iterations ***

         #    Occupation            Energy/Eh            Energy/eV
      -------------------------------------------------------------
         1        2.0000           -0.6601530             -17.9637
       ...           ...                  ...                  ...
       101        2.0000           -0.3200474              -8.7089
       102        2.0000           -0.3184513              -8.6655
       103        2.0000           -0.3036709              -8.2633
       104        2.0000           -0.2969461              -8.0803
       105        2.0000           -0.2130298              -5.7968
       106        1.9999           -0.2000134              -5.4426
       107        1.9779           -0.1945219              -5.2932 (HOMO)
       108        0.0222           -0.1859874              -5.0610 (LUMO)
       109        0.0000           -0.1763524              -4.7988
       110                         -0.1728975              -4.7048
       111                         -0.1698801              -4.6227
       112                         -0.1671796              -4.5492
       ...                                ...                  ...
       190                          0.7948454              21.6288
      -------------------------------------------------------------
                  HL-Gap            0.0085345 Eh            0.2322 eV
             Fermi-level           -0.1902532 Eh           -5.1771 eV

 SCC (total)                   0 d,  0 h,  0 min, 19.499 sec
 SCC setup                      ...        0 min,  0.017 sec (  0.088%)
 Dispersion                     ...        0 min,  0.029 sec (  0.151%)
 classical contributions        ...        0 min,  0.004 sec (  0.019%)
 integral evaluation            ...        0 min,  0.197 sec (  1.009%)
 iterations                     ...        0 min, 18.739 sec ( 96.100%)
 molecular gradient             ...        0 min,  0.502 sec (  2.573%)
 printout                       ...        0 min,  0.011 sec (  0.059%)

         :::::::::::::::::::::::::::::::::::::::::::::::::::::
         ::                     SUMMARY                     ::
         :::::::::::::::::::::::::::::::::::::::::::::::::::::
         :: total energy            -122.021733073721 Eh    ::
         :: gradient norm              0.361515306529 Eh/a0 ::
         :: HOMO-LUMO gap              0.232235988371 eV    ::
         ::.................................................::
         :: SCC energy              -123.401194977780 Eh    ::
         :: -> isotropic ES            0.419290351775 Eh    ::
         :: -> anisotropic ES          0.017858714442 Eh    ::
         :: -> anisotropic XC          0.032873835671 Eh    ::
         :: -> dispersion             -0.079633880457 Eh    ::
         :: repulsion energy           1.379461904059 Eh    ::
         :: add. restraining           0.000000000000 Eh    ::
         :: total charge              -0.999999999943 e     ::
         :::::::::::::::::::::::::::::::::::::::::::::::::::::

           -------------------------------------------------
          |                Property Printout                |
           -------------------------------------------------

    * Orbital Energies and Occupations

         #    Occupation            Energy/Eh            Energy/eV
      -------------------------------------------------------------
         1        2.0000           -0.6601530             -17.9637
       ...           ...                  ...                  ...
        95        2.0000           -0.3347188              -9.1082
        96        2.0000           -0.3326949              -9.0531
        97        2.0000           -0.3317475              -9.0273
        98        2.0000           -0.3305363              -8.9944
        99        2.0000           -0.3296175              -8.9693
       100        2.0000           -0.3249901              -8.8434
       101        2.0000           -0.3200474              -8.7089
       102        2.0000           -0.3184513              -8.6655
       103        2.0000           -0.3036709              -8.2633
       104        2.0000           -0.2969461              -8.0803
       105        2.0000           -0.2130298              -5.7968
       106        1.9999           -0.2000134              -5.4426
       107        1.9779           -0.1945219              -5.2932 (HOMO)
       108        0.0222           -0.1859874              -5.0610 (LUMO)
       109        0.0000           -0.1763524              -4.7988
       110                         -0.1728975              -4.7048
       111                         -0.1698801              -4.6227
       112                         -0.1671796              -4.5492
       113                         -0.1657150              -4.5093
       114                         -0.1598186              -4.3489
       115                         -0.1551424              -4.2216
       116                         -0.1242357              -3.3806
       117                         -0.0417360              -1.1357
       118                         -0.0267411              -0.7277
       ...                                ...                  ...
       190                          0.7948454              21.6288
      -------------------------------------------------------------
                  HL-Gap            0.0085345 Eh            0.2322 eV
             Fermi-level           -0.1902532 Eh           -5.1771 eV

     #   Z          covCN         q      C6AA      α(0)
     1   7 N        2.675    -0.206    25.476     7.496
     2   6 C        3.725    -0.014    20.929     6.532
     3   6 C        2.742     0.274    22.361     7.743
     4   8 O        0.858    -0.404    21.770     6.256
     5   7 N        2.685    -0.182    24.943     7.418
     6   6 C        3.809     0.041    19.880     6.347
     7   6 C        2.745     0.260    22.623     7.788
     8   6 C        3.779     0.014    20.355     6.428
     9   8 O        0.856    -0.422    22.130     6.307
    10   7 N        2.686    -0.162    24.515     7.354
    11   6 C        3.794    -0.048    21.434     6.593
    12   6 C        2.775     0.268    22.486     7.766
    13   6 C        3.786    -0.072    21.901     6.666
    14   6 C        3.729    -0.020    21.023     6.545
    15   8 O        0.857    -0.458    22.869     6.412
    16   6 C        2.688     0.342    21.190     7.533
    17   7 N        2.711    -0.160    24.470     7.347
    18   8 O        0.855    -0.585    25.765     6.805
    19   8 O        0.856    -0.586    25.788     6.808
    20   6 C        2.752     0.257    22.678     7.798
    21   6 C        3.796     0.037    19.965     6.362
    22   8 O        0.860    -0.453    22.770     6.398
    23   7 N        2.700    -0.177    24.833     7.401
    24   6 C        3.764    -0.104    22.533     6.766
    25   6 C        2.762     0.276    22.341     7.740
    26   6 C        3.741    -0.018    20.971     6.534
    27   8 O        0.861    -0.440    22.500     6.360
    28   7 N        2.701    -0.172    24.728     7.386
    29   6 C        2.768     0.274    22.371     7.746
    30   8 O        0.857    -0.448    22.672     6.384
    31   6 C        3.818    -0.065    21.739     6.636
    32   6 C        2.963    -0.033    28.820     8.806
    33   6 C        2.966     0.015    27.678     8.629
    34   6 C        3.065    -0.007    28.132     8.697
    35   7 N        2.709    -0.146    24.162     7.300
    36   6 C        3.001     0.040    27.096     8.539
    37   6 C        2.932    -0.042    29.038     8.837
    38   6 C        2.905    -0.062    29.532     8.911
    39   6 C        2.912    -0.046    29.141     8.852
    40   6 C        2.935    -0.018    28.457     8.749
    41   1 H        0.861     0.173     1.256     1.755
    42   1 H        0.924     0.090     1.883     2.146
    43   1 H        0.917     0.038     2.474     2.460
    44   1 H        0.857     0.173     1.258     1.757
    45   1 H        0.924     0.064     2.151     2.293
    46   1 H        0.921     0.084     1.942     2.180
    47   1 H        0.860     0.197     1.120     1.658
    48   1 H        0.927     0.057     2.236     2.338
    49   1 H        0.925     0.070     2.086     2.259
    50   1 H        0.927     0.026     2.649     2.545
    51   1 H        0.916     0.005     2.980     2.700
    52   1 H        0.925     0.079     1.985     2.203
    53   1 H        0.917     0.062     2.177     2.308
    54   1 H        0.861     0.192     1.145     1.676
    55   1 H        0.914     0.067     2.117     2.276
    56   1 H        0.861     0.183     1.194     1.712
    57   1 H        0.922     0.046     2.376     2.411
    58   1 H        0.921     0.049     2.328     2.386
    59   1 H        0.921     0.051     2.304     2.374
    60   1 H        0.921     0.067     2.117     2.276
    61   1 H        0.920     0.071     2.080     2.256
    62   1 H        0.861     0.217     1.024     1.585
    63   1 H        0.923     0.052     2.301     2.372
    64   1 H        0.923     0.065     2.142     2.289
    65   1 H        0.923     0.036     2.498     2.472
    66   1 H        0.858     0.153     1.383     1.843
    67   1 H        0.928     0.025     2.652     2.546
    68   1 H        0.929     0.040     2.447     2.446
    69   1 H        0.924     0.024     2.674     2.557
    70   1 H        0.910     0.001     3.049     2.732

 Mol. C6AA /au·bohr⁶  :      56233.766123
 Mol. C8AA /au·bohr⁸  :    1292180.439802
 Mol. α(0) /au        :        359.784908


Wiberg/Mayer (AO) data.
largest (>0.10) Wiberg bond orders for each atom

 ---------------------------------------------------------------------------
     #   Z sym  total        # sym  WBO       # sym  WBO       # sym  WBO
 ---------------------------------------------------------------------------
     1   7 N    3.355 --     7 C    1.157     2 C    0.989    41 H    0.950
                             9 O    0.182
     2   6 C    3.971 --     1 N    0.989    43 H    0.968    42 H    0.961
                             3 C    0.948
     3   6 C    3.949 --     4 O    1.718     5 N    1.215     2 C    0.948
     4   8 O    2.041 --     3 C    1.718     5 N    0.197
     5   7 N    3.420 --     3 C    1.215     6 C    0.990    44 H    0.939
                             4 O    0.197
     6   6 C    3.972 --     5 N    0.990    31 C    0.968    45 H    0.953
                            29 C    0.948
     7   6 C    3.933 --     9 O    1.707     1 N    1.157     8 C    0.990
     8   6 C    3.937 --     7 C    0.990    46 H    0.950    10 N    0.944
                            11 C    0.927
     9   8 O    2.010 --     7 C    1.707     1 N    0.182
    10   7 N    3.476 --    12 C    1.329     8 C    0.944    47 H    0.923
                            15 O    0.203
    11   6 C    3.969 --    13 C    0.998    48 H    0.979    49 H    0.970
                             8 C    0.927
    12   6 C    3.956 --    15 O    1.626    10 N    1.329    14 C    0.946
    13   6 C    3.962 --    11 C    0.998    51 H    0.980    50 H    0.974
                            16 C    0.903
    14   6 C    3.957 --    17 N    0.969    53 H    0.966    52 H    0.960
                            12 C    0.946
    15   8 O    1.963 --    12 C    1.626    10 N    0.203
    16   6 C    3.947 --    19 O    1.514    18 O    1.510    13 C    0.903
    17   7 N    3.485 --    20 C    1.311    14 C    0.969    54 H    0.926
                            22 O    0.211
    18   8 O    1.812 --    16 C    1.510    19 O    0.239
    19   8 O    1.819 --    16 C    1.514    18 O    0.239
    20   6 C    3.954 --    22 O    1.641    17 N    1.311    21 C    0.920
    21   6 C    3.966 --    24 C    1.011    23 N    0.979    55 H    0.949
                            20 C    0.920
    22   8 O    1.965 --    20 C    1.641    17 N    0.211
    23   7 N    3.435 --    25 C    1.242    21 C    0.979    56 H    0.937
                            27 O    0.190
    24   6 C    3.992 --    21 C    1.011    57 H    0.983    59 H    0.979
                            58 H    0.978
    25   6 C    3.957 --    27 O    1.684    23 N    1.242    26 C    0.968
    26   6 C    3.980 --    28 N    0.994    25 C    0.968    61 H    0.958
                            60 H    0.953
    27   8 O    1.994 --    25 C    1.684    23 N    0.190
    28   7 N    3.415 --    29 C    1.251    26 C    0.994    62 H    0.917
                            30 O    0.188
    29   6 C    3.949 --    30 O    1.668    28 N    1.251     6 C    0.948
    30   8 O    1.971 --    29 C    1.668    28 N    0.188
    31   6 C    3.989 --    32 C    0.984    63 H    0.969    64 H    0.969
                             6 C    0.968
    32   6 C    3.955 --    33 C    1.683    34 C    1.118    31 C    0.984
    33   6 C    3.943 --    32 C    1.683    35 N    1.136    65 H    0.963
    34   6 C    3.977 --    37 C    1.466    36 C    1.205    32 C    1.118
    35   7 N    3.441 --    36 C    1.137    33 C    1.136    66 H    0.944
    36   6 C    3.953 --    38 C    1.403    34 C    1.205    35 N    1.137
    37   6 C    3.981 --    34 C    1.466    39 C    1.357    67 H    0.970
                            38 C    0.106
    38   6 C    3.976 --    36 C    1.403    40 C    1.403    68 H    0.972
                            37 C    0.106
    39   6 C    3.986 --    40 C    1.492    37 C    1.357    69 H    0.970
    40   6 C    3.986 --    39 C    1.492    38 C    1.403    70 H    0.960
    41   1 H    0.970 --     1 N    0.950
    42   1 H    0.992 --     2 C    0.961
    43   1 H    0.998 --     2 C    0.968
    44   1 H    0.970 --     5 N    0.939
    45   1 H    0.996 --     6 C    0.953
    46   1 H    0.993 --     8 C    0.950
    47   1 H    0.961 --    10 N    0.923
    48   1 H    0.997 --    11 C    0.979
    49   1 H    0.995 --    11 C    0.970
    50   1 H    0.999 --    13 C    0.974
    51   1 H    1.000 --    13 C    0.980
    52   1 H    0.993 --    14 C    0.960
    53   1 H    0.996 --    14 C    0.966
    54   1 H    0.963 --    17 N    0.926
    55   1 H    0.995 --    21 C    0.949
    56   1 H    0.966 --    23 N    0.937
    57   1 H    0.997 --    24 C    0.983
    58   1 H    0.997 --    24 C    0.978
    59   1 H    0.997 --    24 C    0.979
    60   1 H    0.995 --    26 C    0.953
    61   1 H    0.995 --    26 C    0.958
    62   1 H    0.953 --    28 N    0.917
    63   1 H    0.997 --    31 C    0.969
    64   1 H    0.995 --    31 C    0.969
    65   1 H    0.998 --    33 C    0.963
    66   1 H    0.976 --    35 N    0.944
    67   1 H    0.999 --    37 C    0.970
    68   1 H    0.998 --    38 C    0.972
    69   1 H    0.999 --    39 C    0.970
    70   1 H    0.999 --    40 C    0.960
 ---------------------------------------------------------------------------

Topologies differ in total number of bonds
Writing topology from bond orders to xtbtopo.mol

molecular dipole:
                 x           y           z       tot (Debye)
 q only:        4.694       9.802       8.263
   full:        4.758      10.019       8.606      35.684
molecular quadrupole (traceless):
                xx          xy          yy          xz          yz          zz
 q only:       69.539     -71.459     -49.076     -59.369    -153.716     -20.463
  q+dip:       66.205     -77.204     -45.228     -57.599    -163.765     -20.977
   full:       69.035     -76.494     -46.848     -59.927    -162.758     -22.188


           -------------------------------------------------
          | TOTAL ENERGY             -122.021733073721 Eh   |
          | GRADIENT NORM               0.361515306529 Eh/α |
          | HOMO-LUMO GAP               0.232235988371 eV   |
           -------------------------------------------------

------------------------------------------------------------------------
 * finished run on 2026/05/23 at 08:14:32.467     
------------------------------------------------------------------------
 total:
 * wall-time:     0 d,  0 h,  0 min, 20.190 sec
 *  cpu-time:     0 d,  0 h,  0 min, 33.085 sec
 * ratio c/w:     1.639 speedup
 SCF:
 * wall-time:     0 d,  0 h,  0 min, 19.513 sec
 *  cpu-time:     0 d,  0 h,  0 min, 32.263 sec
 * ratio c/w:     1.653 speedup

normal termination of xtb
