      -----------------------------------------------------------      
     |                   =====================                   |     
     |                           x T B                           |     
     |                   =====================                   |     
     |                         S. Grimme                         |     
     |          Mulliken Center for Theoretical Chemistry        |     
     |                    University of Bonn                     |     
      -----------------------------------------------------------      

   * xtb version 6.7.1 (26dd68d) compiled by 'froitzheim@fs7' on 2026-05-14

   xtb is free software: you can redistribute it and/or modify it under
   the terms of the GNU Lesser General Public License as published by
   the Free Software Foundation, either version 3 of the License, or
   (at your option) any later version.
   
   xtb is distributed in the hope that it will be useful,
   but WITHOUT ANY WARRANTY; without even the implied warranty of
   MERCHANTABILITY or FITNESS FOR A PARTICULAR PURPOSE.  See the
   GNU Lesser General Public License for more details.
   
   Cite this work as:
   * C. Bannwarth, E. Caldeweyher, S. Ehlert, A. Hansen, P. Pracht,
     J. Seibert, S. Spicher, S. Grimme, WIREs Comput. Mol. Sci., 2020, 11,
     e01493. DOI: 10.1002/wcms.1493
   
   for g-xTB:
   * T. Froitzheim, M. Müller, A. Hansen, S. Grimme, ChemRxiv, 2025, preprint.
     DOI: 10.26434/chemrxiv-2025-bjxv
   for GFN2-xTB:
   * C. Bannwarth, S. Ehlert and S. Grimme., J. Chem. Theory Comput., 2019,
     15, 1652-1671. DOI: 10.1021/acs.jctc.8b01176
   for GFN1-xTB:
   * S. Grimme, C. Bannwarth, P. Shushkov, J. Chem. Theory Comput., 2017,
     13, 1989-2009. DOI: 10.1021/acs.jctc.7b00118
   for GFN0-xTB:
   * P. Pracht, E. Caldeweyher, S. Ehlert, S. Grimme, ChemRxiv, 2019, preprint.
     DOI: 10.26434/chemrxiv.8326202.v1
   for GFN-FF:
   * S. Spicher and S. Grimme, Angew. Chem. Int. Ed., 2020, 59, 15665-15673.
     DOI: 10.1002/anie.202004239
   
   for ALPB and GBSA implicit solvation:
   * S. Ehlert, M. Stahn, S. Spicher, S. Grimme, J. Chem. Theory Comput.,
     2021, 17, 4250-4261. DOI: 10.1021/acs.jctc.1c00471
   
   for ddCOSMO and CPCM-X implicit solvation:
   * M. Stahn, S. Ehlert, S. Grimme, J. Phys. Chem. A,
     2023, XX, XXXX-XXXX. DOI: 10.1021/acs.jpca.3c04382
   
   for DFT-D4:
   * E. Caldeweyher, C. Bannwarth and S. Grimme, J. Chem. Phys., 2017,
     147, 034112. DOI: 10.1063/1.4993215
   * E. Caldeweyher, S. Ehlert, A. Hansen, H. Neugebauer, S. Spicher,
     C. Bannwarth and S. Grimme, J. Chem. Phys., 2019, 150, 154122.
     DOI: 10.1063/1.5090222
   * E. Caldeweyher, J.-M. Mewes, S. Ehlert and S. Grimme, Phys. Chem. Chem. Phys.
     2020, 22, 8499-8512. DOI: 10.1039/D0CP00502A
   
   for sTDA-xTB:
   * S. Grimme and C. Bannwarth, J. Chem. Phys., 2016, 145, 054103.
     DOI: 10.1063/1.4959605
   
   in the mass-spec context:
   * V. Asgeirsson, C. Bauer and S. Grimme, Chem. Sci., 2017, 8, 4879.
     DOI: 10.1039/c7sc00601b
   * J. Koopman and S. Grimme, ACS Omega 2019, 4, 12, 15120-15133.
     DOI: 10.1021/acsomega.9b02011
   
   for metadynamics refer to:
   * S. Grimme, J. Chem. Theory Comput., 2019, 155, 2847-2862
     DOI: 10.1021/acs.jctc.9b00143
   
   for SPH calculations refer to:
   * S. Spicher and S. Grimme, J. Chem. Theory Comput., 2021, 17, 1701-1714
     DOI: 10.1021/acs.jctc.0c01306
   
   for ONIOM refer to:
   * C. Plett, A. Katbashev, S. Ehlert, S. Grimme, M. Bursch,
     Phys. Chem. Chem. Phys., 2023, 25, 17860-17868. DOI: 10.1039/D3CP02178E
   
   for DIPRO refer to:
   * J. Kohn, N. Gildemeister, S. Grimme, D. Fazzi, A. Hansen,
     J. Chem. Phys. 159, 144106 (2023). DOI: 10.1063/5.0167484
   
   for PTB refer to:
   * S. Grimme, M. Mueller, A. Hansen, J. Chem. Phys., 2023, 158, 124111.
     DOI: 10.1063/5.0137838
   
   with help from (in alphabetical order)
   P. Atkinson, C. Bannwarth, F. Bohle, G. Brandenburg, E. Caldeweyher,
   M. Checinski, S. Dohm, S. Ehlert, S. Ehrlich, M. Friede, T. Froitzheim,
   I. Gerasimov, C. Hölzer, A. Katbashev, J. Kohn, J. Koopman, C. Lavigne,
   S. Lehtola, F. März, M. Müller, F. Musil, H. Neugebauer, J. Pisarek,
   C. Plett, P. Pracht, F. Pultar, J. Seibert, P. Shushkov, S. Spicher,
   M. Stahn, M. Steiner, T. Strunk, J. Stückrath, T. Rose, and J. Unsleber
   
 * started run on 2026/05/23 at 12:51:33.870     
   ID    Z sym.   atoms
    1    7 N      1, 5, 10, 18, 28, 30, 37-39, 41, 47, 48, 56
    2    6 C      2, 3, 6-8, 11-14, 16, 17, 19-25, 27, 29, 31-34, 36, 40,
                  42-45, 49, 51-55
    3    8 O      4, 9, 15, 26, 35, 46, 50
    4    1 H      57-115

           -------------------------------------------------
          |                Calculation Setup                |
           -------------------------------------------------

          program call               : /home/xchen/software/xtb-6.7.1-gxtb/bin/xtb /home/xchen/Test/benchmark/md_sampled/03_6_0978_0/snap_0136.xyz --charge 0 --gxtb --norestart
          coordinate file            : /home/xchen/Test/benchmark/md_sampled/03_6_0978_0/snap_0136.xyz
          omp threads                :                    48

core increment energy         -2.3949795228626E+03 Eh
dispersion energy              2.6264501574004E-02 Eh
molecular charge               0.0000000000000E+00 e
number of electrons            3.0999999999720E+02 e
number of unpaired electrons   0.0000000000000E+00 e
wavefunction                   restricted
integral cutoff                2.6907767250513E+01 bohr
energy convergence             1.0000000000000E-06 Eh
density convergence            2.0000000000000E-05 e

------------------------------------------------------------
  cycle        total energy    energy error   density error
------------------------------------------------------------
      1     -2644.430388471  -2.4947713E+02   0.0000000E+00
      2     -2644.835163737  -4.0477527E-01   1.9053650E-02
      3     -2645.092595027  -2.5743129E-01   1.5021656E-02
      4     -2645.641260813  -5.4866579E-01   1.1909617E-02
      5     -2645.651057520  -9.7967062E-03   8.9752493E-04
      6     -2645.651786427  -7.2890699E-04   1.6212520E-04
      7     -2645.651851354  -6.4927633E-05   5.3567454E-05
      8     -2645.651855684  -4.3293528E-06   1.3017229E-05
      9     -2645.651856341  -6.5724174E-07   3.2641869E-06
------------------------------------------------------------

electronic energy             -2.5069859797987E+02 Eh
total energy                  -2.6456518563409E+03 Eh

Post processing:
 | Mayer-Wiberg bond orders
 | Molecular Multipole Moments

 total:                                  17.387 sec
 - increment                              0.000 sec (  0%)
 - repulsion                              0.009 sec (  0%)
 - dispersion                             0.467 sec (  2%)
 - coulomb                                0.210 sec (  1%)
 - exchange                               0.005 sec (  0%)
 - hamiltonian                            3.582 sec ( 20%)
 - acp                                    0.346 sec (  1%)
 - spin polarization                      0.000 sec (  0%)
 - post processing                        0.174 sec (  1%)
 - scc                                   11.630 sec ( 66%)
 - coulomb gradient                       0.088 sec (  0%)
 - dispersion gradient                    0.046 sec (  0%)
 - exchange gradient                      0.203 sec (  1%)
 - repulsion gradient                     0.004 sec (  0%)
 - acp gradient                           0.280 sec (  1%)
 - hamiltonian gradient                   0.498 sec (  2%)
 - gradient                               1.120 sec (  6%)

         :::::::::::::::::::::::::::::::::::::::::::::::::::::
         ::                     SUMMARY                     ::
         :::::::::::::::::::::::::::::::::::::::::::::::::::::
         :: total energy           -2645.651856340899 Eh    ::
         :: gradient norm              0.435531093939 Eh/a0 ::
         :: HOMO-LUMO gap              8.952013250694 eV    ::
         ::.................................................::
         :: add. restraining           0.000000000000 Eh    ::
         :: total charge               0.000000000000 e     ::
         :::::::::::::::::::::::::::::::::::::::::::::::::::::

           -------------------------------------------------
          |                Property Printout                |
           -------------------------------------------------

    * Orbital Energies and Occupations
------------------------------------------------------------------
      #    Occupation            Energy/Eh            Energy/eV
------------------------------------------------------------------
      1        2.0000           -1.3830355             -37.6343
    ...           ...                  ...                  ...
    143        2.0000           -0.3768150             -10.2537
    144        2.0000           -0.3766806             -10.2500
    145        2.0000           -0.3746339             -10.1943
    146        2.0000           -0.3736079             -10.1664
    147        2.0000           -0.3719608             -10.1216
    148        2.0000           -0.3687020             -10.0329
    149        2.0000           -0.3654620              -9.9447
    150        2.0000           -0.3611348              -9.8270
    151        2.0000           -0.3570828              -9.7167
    152        2.0000           -0.3523406              -9.5877
    153        2.0000           -0.3495271              -9.5111
    154        2.0000           -0.3368094              -9.1651
    155        2.0000           -0.3314249              -9.0185 (HOMO)
    156                         -0.0024445              -0.0665 (LUMO)
    157                          0.0053133               0.1446
    158                          0.0092387               0.2514
    159                          0.0111786               0.3042
    160                          0.0189942               0.5169
    161                          0.0234103               0.6370
    162                          0.0254896               0.6936
    163                          0.0447043               1.2165
    164                          0.0686995               1.8694
    165                          0.0809446               2.2026
    166                          0.1246500               3.3919
    ...                                ...                  ...
    283                          0.8781499              23.8957
------------------------------------------------------------------
               HL-Gap            0.3289804 Eh            8.9520 eV
------------------------------------------------------------------

Atomic charges and shell populations (in atomic units):
------------------------------------------------------
     #    Z                q          p(s)       p(p)
------------------------------------------------------
     1    7 N      -0.328860      1.351868   3.976992
     2    6 C      -0.030456      1.137174   2.893282
     3    6 C       0.433829      1.077734   2.488437
     4    8 O      -0.568860      1.844719   4.724141
     5    7 N      -0.317839      1.352641   3.965197
     6    6 C      -0.012920      1.140555   2.872365
     7    6 C       0.413093      1.098106   2.488801
     8    6 C       0.000111      1.125488   2.874401
     9    8 O      -0.550726      1.847826   4.702900
    10    7 N      -0.348537      1.370968   3.977570
    11    6 C      -0.198272      1.158357   3.039915
    12    6 C       0.421174      1.098052   2.480774
    13    6 C      -0.033099      1.136921   2.896178
    14    6 C      -0.014940      1.128976   2.885964
    15    8 O      -0.523807      1.849546   4.674260
    16    6 C      -0.130064      1.159279   2.970785
    17    6 C      -0.101601      1.152237   2.949364
    18    7 N      -0.371353      1.375565   3.995789
    19    6 C      -0.174747      1.164626   3.010120
    20    6 C      -0.109420      1.158150   2.951270
    21    6 C      -0.089412      1.154410   2.935002
    22    6 C       0.406904      1.123070   2.470026
    23    6 C      -0.193963      1.157275   3.036688
    24    6 C      -0.117123      1.148035   2.969088
    25    6 C       0.027035      1.134577   2.838388
    26    8 O      -0.497993      1.855179   4.642814
    27    6 C      -0.078212      1.136649   2.941563
    28    7 N      -0.364638      1.357450   4.007188
    29    6 C      -0.171232      1.157098   3.014134
    30    7 N      -0.418051      1.403975   4.014076
    31    6 C       0.438897      1.095251   2.465852
    32    6 C      -0.198578      1.160554   3.038024
    33    6 C       0.282720      1.101607   2.615673
    34    6 C       0.028720      1.133113   2.838168
    35    8 O      -0.502595      1.850623   4.651972
    36    6 C      -0.081486      1.112559   2.968927
    37    7 N      -0.512900      1.572713   3.940187
    38    7 N      -0.466869      1.418714   4.048154
    39    7 N      -0.215911      1.336789   3.879122
    40    6 C      -0.189333      1.154827   3.034506
    41    7 N      -0.363359      1.331791   4.031567
    42    6 C      -0.077674      1.137524   2.940149
    43    6 C       0.413653      1.091439   2.494908
    44    6 C      -0.195425      1.134854   3.060571
    45    6 C       0.294196      1.083429   2.622374
    46    8 O      -0.588338      1.857303   4.731035
    47    7 N      -0.542798      1.601166   3.941633
    48    7 N      -0.441132      1.431421   4.009711
    49    6 C       0.122112      1.116960   2.760928
    50    8 O      -0.573669      1.812405   4.761264
    51    6 C      -0.280253      1.151023   3.129230
    52    6 C      -0.175215      1.177519   2.997697
    53    6 C      -0.195408      1.163920   3.031488
    54    6 C      -0.192924      1.166753   3.026171
    55    6 C      -0.103140      1.134337   2.968803
    56    7 N      -0.541332      1.345182   4.196149
    57    1 H       0.268720      0.731280
    58    1 H       0.149371      0.850629
    59    1 H       0.300097      0.699903
    60    1 H       0.134903      0.865097
    61    1 H       0.122609      0.877391
    62    1 H       0.285723      0.714277
    63    1 H       0.105105      0.894895
    64    1 H       0.137835      0.862165
    65    1 H       0.135357      0.864643
    66    1 H       0.110112      0.889888
    67    1 H       0.126081      0.873919
    68    1 H       0.255831      0.744169
    69    1 H       0.111523      0.888477
    70    1 H       0.097641      0.902359
    71    1 H       0.110862      0.889138
    72    1 H       0.126175      0.873825
    73    1 H       0.132002      0.867998
    74    1 H       0.118614      0.881386
    75    1 H       0.109683      0.890317
    76    1 H       0.118195      0.881805
    77    1 H       0.094009      0.905991
    78    1 H       0.093560      0.906440
    79    1 H       0.252020      0.747980
    80    1 H       0.090260      0.909740
    81    1 H       0.111117      0.888883
    82    1 H       0.243583      0.756417
    83    1 H       0.119837      0.880163
    84    1 H       0.105198      0.894802
    85    1 H       0.089560      0.910440
    86    1 H       0.095860      0.904140
    87    1 H       0.097384      0.902616
    88    1 H       0.224245      0.775755
    89    1 H       0.255281      0.744719
    90    1 H       0.262116      0.737884
    91    1 H       0.125120      0.874880
    92    1 H       0.117469      0.882531
    93    1 H       0.256654      0.743346
    94    1 H       0.119582      0.880418
    95    1 H       0.101974      0.898026
    96    1 H       0.133526      0.866474
    97    1 H       0.104321      0.895679
    98    1 H       0.217153      0.782847
    99    1 H       0.218433      0.781567
   100    1 H       0.249299      0.750701
   101    1 H       0.098865      0.901135
   102    1 H       0.369383      0.630617
   103    1 H       0.112760      0.887240
   104    1 H       0.095911      0.904089
   105    1 H       0.094710      0.905290
   106    1 H       0.106805      0.893195
   107    1 H       0.118752      0.881248
   108    1 H       0.125014      0.874986
   109    1 H       0.105374      0.894626
   110    1 H       0.100465      0.899535
   111    1 H       0.086700      0.913300
   112    1 H       0.103693      0.896307
   113    1 H       0.088966      0.911034
   114    1 H       0.232588      0.767412
   115    1 H       0.228031      0.771969
------------------------------------------------------


Wiberg/Mayer (AO) data.
largest (>0.10) Wiberg bond orders for each atom

 ---------------------------------------------------------------------------
     #   Z sym  total        # sym  WBO       # sym  WBO       # sym  WBO
 ---------------------------------------------------------------------------
     1   7 N    3.343 --     7 C    1.256     2 C    0.963    57 O    0.888
                             9 C    0.159
     2   6 C    3.921 --     1 N    0.963    49 C    0.939    58 O    0.932
                             3 C    0.924
     3   6 C    3.881 --     4 C    1.567     5 N    1.311     2 C    0.924
     4   8 C    1.928 --     3 C    1.567     5 N    0.165
     5   7 N    3.387 --     3 C    1.311     6 C    0.938    59 O    0.870
                             4 C    0.165
     6   6 C    3.909 --    52 C    0.969    43 C    0.950     5 N    0.938
                            60 O    0.923
     7   6 C    3.866 --     9 C    1.640     1 N    1.256     8 C    0.904
     8   6 C    3.940 --    10 N    0.992    11 C    0.966    61 O    0.931
                             7 C    0.904
     9   8 C    1.952 --     7 C    1.640     1 N    0.159
    10   7 N    3.297 --    12 C    1.186     8 C    0.992    62 O    0.862
                            15 C    0.152
    11   6 C    3.956 --    13 C    0.993     8 C    0.966    63 O    0.964
                            64 O    0.947
    12   6 C    3.868 --    15 C    1.690    10 N    1.186    14 C    0.926
    13   6 C    3.976 --    17 C    1.493    16 C    1.347    11 C    0.993
                            24 C    0.101
    14   6 C    3.928 --    19 C    0.976    18 N    0.962    65 O    0.930
                            12 C    0.926
    15   8 C    1.973 --    12 C    1.690    10 N    0.152
    16   6 C    3.963 --    20 C    1.487    13 C    1.347    66 O    0.955
                            21 C    0.127
    17   6 C    3.962 --    13 C    1.493    21 C    1.345    67 O    0.943
                            20 C    0.123
    18   7 N    3.266 --    22 C    1.161    14 C    0.962    68 O    0.891
                            26 C    0.156
    19   6 C    3.954 --    23 C    0.996    14 C    0.976    70 O    0.961
                            69 O    0.956
    20   6 C    3.966 --    16 C    1.487    24 C    1.371    71 O    0.955
                            17 C    0.123
    21   6 C    3.963 --    24 C    1.504    17 C    1.345    72 O    0.946
                            16 C    0.127
    22   6 C    3.857 --    26 C    1.723    18 N    1.161    25 C    0.906
    23   6 C    3.955 --    19 C    0.996    27 C    0.979    74 O    0.960
                            73 O    0.956
    24   6 C    3.967 --    21 C    1.504    20 C    1.371    75 O    0.949
                            13 C    0.101
    25   6 C    3.926 --    29 C    0.983    28 N    0.963    76 O    0.928
                            22 C    0.906
    26   8 C    1.994 --    22 C    1.723    18 N    0.156
    27   6 C    3.939 --    30 N    1.010    23 C    0.979    78 O    0.955
                            77 O    0.953
    28   7 N    3.283 --    31 C    1.164    25 C    0.963    79 O    0.900
                            35 C    0.160
    29   6 C    3.959 --    32 C    1.001    25 C    0.983    80 O    0.959
                            81 O    0.953
    30   7 N    3.129 --    33 C    1.016    27 C    1.010    82 O    0.907
    31   6 C    3.872 --    35 C    1.709    28 N    1.164    34 C    0.929
    32   6 C    3.958 --    29 C    1.001    36 C    0.996    84 O    0.962
                            83 O    0.954
    33   6 C    3.936 --    37 N    1.762    38 N    1.119    30 N    1.016
    34   6 C    3.932 --    40 C    0.968    39 N    0.955    85 O    0.940
                            31 C    0.929
    35   8 C    1.984 --    31 C    1.709    28 N    0.160
    36   6 C    3.939 --    41 N    1.019    32 C    0.996    86 O    0.946
                            87 O    0.931
    37   7 N    2.919 --    33 C    1.762    88 O    0.911
    38   7 N    3.086 --    33 C    1.119    90 O    0.910    89 O    0.902
    39   7 N    3.433 --    43 C    1.275    34 C    0.955    42 C    0.944
                            46 C    0.157
    40   6 C    3.956 --    44 C    1.015    34 C    0.968    92 O    0.960
                            91 O    0.952
    41   7 N    3.240 --    45 C    1.099    36 C    1.019    93 O    0.899
                            47 N    0.118
    42   6 C    3.918 --    44 C    1.002    94 O    0.954    95 O    0.949
                            39 N    0.944
    43   6 C    3.880 --    46 C    1.567    39 N    1.275     6 C    0.950
    44   6 C    3.963 --    40 C    1.015    42 C    1.002    97 O    0.958
                            96 O    0.953
    45   6 C    3.934 --    47 N    1.686    48 N    1.114    41 N    1.099
    46   8 C    1.863 --    43 C    1.567    39 N    0.157
    47   7 N    2.868 --    45 C    1.686    98 O    0.913    41 N    0.118
    48   7 N    3.115 --    45 C    1.114    99 O    0.925   100 O    0.916
    49   6 C    3.915 --    51 C    1.025    50 C    0.959   101 O    0.942
                             2 C    0.939
    50   8 C    1.870 --    49 C    0.959   102 O    0.806
    51   6 C    3.957 --    49 C    1.025   105 O    0.965   104 O    0.964
                           103 O    0.964
    52   6 C    3.947 --    53 C    0.994     6 C    0.969   106 O    0.964
                           107 O    0.949
    53   6 C    3.956 --    54 C    1.002    52 C    0.994   108 O    0.960
                           109 O    0.953
    54   6 C    3.960 --    53 C    1.002    55 C    0.980   110 O    0.961
                           111 O    0.957
    55   6 C    3.946 --    56 N    1.028    54 C    0.980   112 O    0.964
                           113 O    0.950
    56   7 N    2.943 --    55 C    1.028   114 O    0.928   115 O    0.914
    57   1 O    0.928 --     1 N    0.888
    58   1 O    0.978 --     2 C    0.932
    59   1 O    0.910 --     5 N    0.870
    60   1 O    0.982 --     6 C    0.923
    61   1 O    0.985 --     8 C    0.931
    62   1 O    0.918 --    10 N    0.862
    63   1 O    0.989 --    11 C    0.964
    64   1 O    0.981 --    11 C    0.947
    65   1 O    0.982 --    14 C    0.930
    66   1 O    0.988 --    16 C    0.955
    67   1 O    0.984 --    17 C    0.943
    68   1 O    0.935 --    18 N    0.891
    69   1 O    0.988 --    19 C    0.956
    70   1 O    0.990 --    19 C    0.961
    71   1 O    0.988 --    20 C    0.955
    72   1 O    0.984 --    21 C    0.946
    73   1 O    0.983 --    23 C    0.956
    74   1 O    0.986 --    23 C    0.960
    75   1 O    0.988 --    24 C    0.949
    76   1 O    0.986 --    25 C    0.928
    77   1 O    0.991 --    27 C    0.953
    78   1 O    0.991 --    27 C    0.955
    79   1 O    0.936 --    28 N    0.900
    80   1 O    0.992 --    29 C    0.959
    81   1 O    0.988 --    29 C    0.953
    82   1 O    0.941 --    30 N    0.907
    83   1 O    0.986 --    32 C    0.954
    84   1 O    0.989 --    32 C    0.962
    85   1 O    0.992 --    34 C    0.940
    86   1 O    0.991 --    36 C    0.946
    87   1 O    0.991 --    36 C    0.931
    88   1 O    0.950 --    37 N    0.911
    89   1 O    0.935 --    38 N    0.902
    90   1 O    0.931 --    38 N    0.910
    91   1 O    0.984 --    40 C    0.952
    92   1 O    0.986 --    40 C    0.960
    93   1 O    0.934 --    41 N    0.899
    94   1 O    0.986 --    42 C    0.954
    95   1 O    0.990 --    42 C    0.949
    96   1 O    0.982 --    44 C    0.953
    97   1 O    0.989 --    44 C    0.958
    98   1 O    0.953 --    47 N    0.913
    99   1 O    0.952 --    48 N    0.925
   100   1 O    0.938 --    48 N    0.916
   101   1 O    0.990 --    49 C    0.942
   102   1 O    0.864 --    50 C    0.806
   103   1 O    0.987 --    51 C    0.964
   104   1 O    0.991 --    51 C    0.964
   105   1 O    0.991 --    51 C    0.965
   106   1 O    0.989 --    52 C    0.964
   107   1 O    0.986 --    52 C    0.949
   108   1 O    0.984 --    53 C    0.960
   109   1 O    0.989 --    53 C    0.953
   110   1 O    0.990 --    54 C    0.961
   111   1 O    0.992 --    54 C    0.957
   112   1 O    0.989 --    55 C    0.964
   113   1 O    0.992 --    55 C    0.950
   114   1 O    0.946 --    56 N    0.928
   115   1 O    0.948 --    56 N    0.914
 ---------------------------------------------------------------------------

Topologies differ in total number of bonds
Writing topology from bond orders to xtbtopo.mol

Atomic dipole moments (in atomic units):
---------------------------------------------------------
     #    Z                 x            y            z
---------------------------------------------------------
           total     3.431128    -2.354563     0.371452
---------------------------------------------------------
         |total|     4.177868    10.619082 Debye


           -------------------------------------------------
          | TOTAL ENERGY            -2645.651856340899 Eh   |
          | GRADIENT NORM               0.435531093939 Eh/α |
           -------------------------------------------------

------------------------------------------------------------------------
 * finished run on 2026/05/23 at 12:51:52.214     
------------------------------------------------------------------------
 total:
 * wall-time:     0 d,  0 h,  0 min, 18.343 sec
 *  cpu-time:     0 d,  0 h,  0 min, 34.992 sec
 * ratio c/w:     1.908 speedup
 SCF:
 * wall-time:     0 d,  0 h,  0 min, 17.814 sec
 *  cpu-time:     0 d,  0 h,  0 min, 34.474 sec
 * ratio c/w:     1.935 speedup

normal termination of xtb
