      -----------------------------------------------------------      
     |                   =====================                   |     
     |                           x T B                           |     
     |                   =====================                   |     
     |                         S. Grimme                         |     
     |          Mulliken Center for Theoretical Chemistry        |     
     |                    University of Bonn                     |     
      -----------------------------------------------------------      

   * xtb version 6.7.1 (edcfbbe) compiled by 'albert@albert-system' on 2024-07-22

   xtb is free software: you can redistribute it and/or modify it under
   the terms of the GNU Lesser General Public License as published by
   the Free Software Foundation, either version 3 of the License, or
   (at your option) any later version.
   
   xtb is distributed in the hope that it will be useful,
   but WITHOUT ANY WARRANTY; without even the implied warranty of
   MERCHANTABILITY or FITNESS FOR A PARTICULAR PURPOSE.  See the
   GNU Lesser General Public License for more details.
   
   Cite this work as:
   * C. Bannwarth, E. Caldeweyher, S. Ehlert, A. Hansen, P. Pracht,
     J. Seibert, S. Spicher, S. Grimme, WIREs Comput. Mol. Sci., 2020, 11,
     e01493. DOI: 10.1002/wcms.1493
   
   for GFN2-xTB:
   * C. Bannwarth, S. Ehlert and S. Grimme., J. Chem. Theory Comput., 2019,
     15, 1652-1671. DOI: 10.1021/acs.jctc.8b01176
   for GFN1-xTB:
   * S. Grimme, C. Bannwarth, P. Shushkov, J. Chem. Theory Comput., 2017,
     13, 1989-2009. DOI: 10.1021/acs.jctc.7b00118
   for GFN0-xTB:
   * P. Pracht, E. Caldeweyher, S. Ehlert, S. Grimme, ChemRxiv, 2019, preprint.
     DOI: 10.26434/chemrxiv.8326202.v1
   for GFN-FF:
   * S. Spicher and S. Grimme, Angew. Chem. Int. Ed., 2020, 59, 15665-15673.
     DOI: 10.1002/anie.202004239
   
   for ALPB and GBSA implicit solvation:
   * S. Ehlert, M. Stahn, S. Spicher, S. Grimme, J. Chem. Theory Comput.,
     2021, 17, 4250-4261. DOI: 10.1021/acs.jctc.1c00471
   
   for ddCOSMO and CPCM-X implicit solvation:
   * M. Stahn, S. Ehlert, S. Grimme, J. Phys. Chem. A,
     2023, XX, XXXX-XXXX. DOI: 10.1021/acs.jpca.3c04382
   
   for DFT-D4:
   * E. Caldeweyher, C. Bannwarth and S. Grimme, J. Chem. Phys., 2017,
     147, 034112. DOI: 10.1063/1.4993215
   * E. Caldeweyher, S. Ehlert, A. Hansen, H. Neugebauer, S. Spicher,
     C. Bannwarth and S. Grimme, J. Chem. Phys., 2019, 150, 154122.
     DOI: 10.1063/1.5090222
   * E. Caldeweyher, J.-M. Mewes, S. Ehlert and S. Grimme, Phys. Chem. Chem. Phys.
     2020, 22, 8499-8512. DOI: 10.1039/D0CP00502A
   
   for sTDA-xTB:
   * S. Grimme and C. Bannwarth, J. Chem. Phys., 2016, 145, 054103.
     DOI: 10.1063/1.4959605
   
   in the mass-spec context:
   * V. Asgeirsson, C. Bauer and S. Grimme, Chem. Sci., 2017, 8, 4879.
     DOI: 10.1039/c7sc00601b
   * J. Koopman and S. Grimme, ACS Omega 2019, 4, 12, 15120-15133.
     DOI: 10.1021/acsomega.9b02011
   
   for metadynamics refer to:
   * S. Grimme, J. Chem. Theory Comput., 2019, 155, 2847-2862
     DOI: 10.1021/acs.jctc.9b00143
   
   for SPH calculations refer to:
   * S. Spicher and S. Grimme, J. Chem. Theory Comput., 2021, 17, 1701-1714
     DOI: 10.1021/acs.jctc.0c01306
   
   for ONIOM refer to:
   * C. Plett, A. Katbashev, S. Ehlert, S. Grimme, M. Bursch,
     Phys. Chem. Chem. Phys., 2023, 25, 17860-17868. DOI: 10.1039/D3CP02178E
   
   for DIPRO refer to:
   * J. Kohn, N. Gildemeister, S. Grimme, D. Fazzi, A. Hansen,
     J. Chem. Phys., 2023, just accepted.
   
   for PTB refer to:
   * S. Grimme, M. Mueller, A. Hansen, J. Chem. Phys., 2023, 158, 124111.
     DOI: 10.1063/5.0137838
   
   with help from (in alphabetical order)
   P. Atkinson, C. Bannwarth, F. Bohle, G. Brandenburg, E. Caldeweyher
   M. Checinski, S. Dohm, S. Ehlert, S. Ehrlich, I. Gerasimov, C. Hölzer
   A. Katbashev, J. Kohn, J. Koopman, C. Lavigne, S. Lehtola, F. März, M. Müller,
   F. Musil, H. Neugebauer, J. Pisarek, C. Plett, P. Pracht, F. Pultar,
   J. Seibert, P. Shushkov, S. Spicher, M. Stahn, M. Steiner, T. Strunk,
   J. Stückrath, T. Rose, and J. Unsleber
   
 * started run on 2026/05/23 at 08:12:48.236     
   ID    Z sym.   atoms
    1    7 N      1, 5, 10, 17, 23, 28, 35
    2    6 C      2, 3, 6-8, 11-14, 16, 20, 21, 24-26, 29, 31-34, 36-40
    3    8 O      4, 9, 15, 18, 19, 22, 27, 30
    4    1 H      41-70

           -------------------------------------------------
          |                Calculation Setup                |
           -------------------------------------------------

          program call               : /home/xchen/software/xtb-6.7.1/xtb-dist/bin/xtb /home/xchen/Test/benchmark/md_sampled/01_6_0109_n1/snap_0016.xyz --charge -1 --gfn 2 --norestart
          coordinate file            : /home/xchen/Test/benchmark/md_sampled/01_6_0109_n1/snap_0016.xyz
          omp threads                :                    48


           -------------------------------------------------
          |                 G F N 2 - x T B                 |
           -------------------------------------------------

        Reference                      10.1021/acs.jctc.8b01176
      * Hamiltonian:
        H0-scaling (s, p, d)           1.850000    2.230000    2.230000
        zeta-weighting                 0.500000
      * Dispersion:
        s8                             2.700000
        a1                             0.520000
        a2                             5.000000
        s9                             5.000000
      * Repulsion:
        kExp                           1.500000    1.000000
        rExp                           1.000000
      * Coulomb:
        alpha                          2.000000
        third order                    shell-resolved
        anisotropic                    true
        a3                             3.000000
        a5                             4.000000
        cn-shift                       1.200000
        cn-exp                         4.000000
        max-rad                        5.000000


          ...................................................
          :                      SETUP                      :
          :.................................................:
          :  # basis functions                 190          :
          :  # atomic orbitals                 190          :
          :  # shells                          110          :
          :  # electrons                       214          :
          :  max. iterations                   250          :
          :  Hamiltonian                  GFN2-xTB          :
          :  restarted?                      false          :
          :  GBSA solvation                  false          :
          :  PC potential                    false          :
          :  electronic temp.          300.0000000     K    :
          :  accuracy                    1.0000000          :
          :  -> integral cutoff          0.2500000E+02      :
          :  -> integral neglect         0.1000000E-07      :
          :  -> SCF convergence          0.1000000E-05 Eh   :
          :  -> wf. convergence          0.1000000E-03 e    :
          :  Broyden damping             0.4000000          :
          :  net charge                         -1          :
          :  unpaired electrons                  0          :
          ...................................................

 iter      E             dE          RMSdq      gap      omega  full diag
   1   -123.0547895 -0.123055E+03  0.454E+00    3.21       0.0  T
   2   -123.4515468 -0.396757E+00  0.245E+00    1.81       1.0  T
   3   -123.4746971 -0.231503E-01  0.141E+00    0.55       1.0  T
   4   -120.6962181  0.277848E+01  0.383E+00    0.08       1.0  T
   5   -123.4737808 -0.277756E+01  0.489E-01    0.62       1.0  T
   6   -123.4150097  0.587711E-01  0.639E-01    0.04       1.0  T
   7   -123.4857819 -0.707723E-01  0.202E-01    0.14       1.0  T
   8   -123.4879726 -0.219063E-02  0.117E-01    0.32       1.0  T
   9   -123.4881156 -0.143033E-03  0.102E-01    0.33       1.0  T
  10   -123.4881445 -0.288596E-04  0.934E-02    0.33       1.0  T
  11   -123.4882814 -0.136963E-03  0.845E-02    0.31       1.0  T
  12   -123.4884214 -0.139991E-03  0.762E-02    0.29       1.0  T
  13   -123.4887392 -0.317808E-03  0.602E-02    0.24       1.0  T
  14   -123.4891401 -0.400881E-03  0.363E-02    0.21       1.0  T
  15   -123.4892472 -0.107110E-03  0.264E-02    0.20       1.0  T
  16   -123.4892643 -0.171014E-04  0.238E-02    0.19       1.0  T
  17   -123.4893502 -0.859047E-04  0.962E-03    0.18       1.2  T
  18   -123.4893478  0.239378E-05  0.959E-03    0.18       1.2  T
  19   -123.4893596 -0.117682E-04  0.529E-03    0.17       2.3  T
  20   -123.4893639 -0.430651E-05  0.186E-03    0.17       6.4  T
  21   -123.4893636  0.311069E-06  0.231E-03    0.17       5.2  T
  22   -123.4893645 -0.939517E-06  0.231E-04    0.18      51.7  T
  23   -123.4893645 -0.710233E-08  0.130E-04    0.18      91.7  T

   *** convergence criteria satisfied after 23 iterations ***

         #    Occupation            Energy/Eh            Energy/eV
      -------------------------------------------------------------
         1        2.0000           -0.6552102             -17.8292
       ...           ...                  ...                  ...
       101        2.0000           -0.3119562              -8.4888
       102        2.0000           -0.3098105              -8.4304
       103        2.0000           -0.3036100              -8.2616
       104        2.0000           -0.2937155              -7.9924
       105        2.0000           -0.2222414              -6.0475
       106        2.0000           -0.2113164              -5.7502
       107        1.9336           -0.1921585              -5.2289 (HOMO)
       108        0.0628           -0.1856970              -5.0531 (LUMO)
       109        0.0036           -0.1829484              -4.9783
       110        0.0000           -0.1757229              -4.7817
       111                         -0.1719759              -4.6797
       112                         -0.1702834              -4.6336
       ...                                ...                  ...
       190                          0.8341706              22.6989
      -------------------------------------------------------------
                  HL-Gap            0.0064615 Eh            0.1758 eV
             Fermi-level           -0.1889550 Eh           -5.1417 eV

 SCC (total)                   0 d,  0 h,  0 min, 12.726 sec
 SCC setup                      ...        0 min,  0.026 sec (  0.206%)
 Dispersion                     ...        0 min,  0.057 sec (  0.446%)
 classical contributions        ...        0 min,  0.006 sec (  0.045%)
 integral evaluation            ...        0 min,  0.273 sec (  2.144%)
 iterations                     ...        0 min, 11.965 sec ( 94.016%)
 molecular gradient             ...        0 min,  0.395 sec (  3.100%)
 printout                       ...        0 min,  0.005 sec (  0.042%)

         :::::::::::::::::::::::::::::::::::::::::::::::::::::
         ::                     SUMMARY                     ::
         :::::::::::::::::::::::::::::::::::::::::::::::::::::
         :: total energy            -122.030974352723 Eh    ::
         :: gradient norm              0.329509512161 Eh/a0 ::
         :: HOMO-LUMO gap              0.175826461059 eV    ::
         ::.................................................::
         :: SCC energy              -123.487981374582 Eh    ::
         :: -> isotropic ES            0.413495407658 Eh    ::
         :: -> anisotropic ES          0.011338013961 Eh    ::
         :: -> anisotropic XC          0.032016739983 Eh    ::
         :: -> dispersion             -0.080696242698 Eh    ::
         :: repulsion energy           1.457007021858 Eh    ::
         :: add. restraining           0.000000000000 Eh    ::
         :: total charge              -1.000000000000 e     ::
         :::::::::::::::::::::::::::::::::::::::::::::::::::::

           -------------------------------------------------
          |                Property Printout                |
           -------------------------------------------------

    * Orbital Energies and Occupations

         #    Occupation            Energy/Eh            Energy/eV
      -------------------------------------------------------------
         1        2.0000           -0.6552102             -17.8292
       ...           ...                  ...                  ...
        95        2.0000           -0.3348544              -9.1119
        96        2.0000           -0.3335560              -9.0765
        97        2.0000           -0.3244636              -8.8291
        98        2.0000           -0.3232472              -8.7960
        99        2.0000           -0.3212989              -8.7430
       100        2.0000           -0.3154157              -8.5829
       101        2.0000           -0.3119562              -8.4888
       102        2.0000           -0.3098105              -8.4304
       103        2.0000           -0.3036100              -8.2616
       104        2.0000           -0.2937155              -7.9924
       105        2.0000           -0.2222414              -6.0475
       106        2.0000           -0.2113164              -5.7502
       107        1.9336           -0.1921585              -5.2289 (HOMO)
       108        0.0628           -0.1856970              -5.0531 (LUMO)
       109        0.0036           -0.1829484              -4.9783
       110        0.0000           -0.1757229              -4.7817
       111                         -0.1719759              -4.6797
       112                         -0.1702834              -4.6336
       113                         -0.1548489              -4.2137
       114                         -0.1458330              -3.9683
       115                         -0.1411568              -3.8411
       116                         -0.1209406              -3.2910
       117                         -0.0250438              -0.6815
       118                         -0.0146817              -0.3995
       ...                                ...                  ...
       190                          0.8341706              22.6989
      -------------------------------------------------------------
                  HL-Gap            0.0064615 Eh            0.1758 eV
             Fermi-level           -0.1889550 Eh           -5.1417 eV

     #   Z          covCN         q      C6AA      α(0)
     1   7 N        2.688    -0.189    25.092     7.440
     2   6 C        3.759    -0.015    20.884     6.515
     3   6 C        2.744     0.279    22.270     7.727
     4   8 O        0.857    -0.394    21.564     6.226
     5   7 N        2.699    -0.216    25.712     7.531
     6   6 C        3.783     0.013    20.378     6.430
     7   6 C        2.781     0.258    22.662     7.797
     8   6 C        3.791     0.040    19.912     6.355
     9   8 O        0.861    -0.449    22.683     6.386
    10   7 N        2.708    -0.166    24.584     7.364
    11   6 C        3.815    -0.072    21.857     6.654
    12   6 C        2.758     0.256    22.691     7.801
    13   6 C        3.777    -0.078    22.011     6.684
    14   6 C        3.752    -0.022    21.019     6.538
    15   8 O        0.858    -0.444    22.572     6.370
    16   6 C        2.683     0.363    20.841     7.471
    17   7 N        2.690    -0.173    24.737     7.387
    18   8 O        0.859    -0.550    24.924     6.694
    19   8 O        0.856    -0.588    25.839     6.815
    20   6 C        2.741     0.273    22.386     7.747
    21   6 C        3.770     0.015    20.362     6.430
    22   8 O        0.858    -0.415    21.979     6.286
    23   7 N        2.697    -0.158    24.412     7.338
    24   6 C        3.761    -0.118    22.798     6.807
    25   6 C        2.752     0.259    22.631     7.790
    26   6 C        3.770    -0.015    20.879     6.512
    27   8 O        0.856    -0.486    23.469     6.495
    28   7 N        2.680    -0.202    25.386     7.483
    29   6 C        2.789     0.274    22.376     7.749
    30   8 O        0.858    -0.435    22.391     6.344
    31   6 C        3.778    -0.066    21.798     6.652
    32   6 C        3.005    -0.034    28.825     8.807
    33   6 C        3.187    -0.015    27.895     8.617
    34   6 C        3.247    -0.016    27.379     8.474
    35   7 N        2.774    -0.107    23.333     7.174
    36   6 C        3.128     0.049    26.705     8.461
    37   6 C        2.923    -0.046    29.136     8.852
    38   6 C        2.912    -0.063    29.560     8.915
    39   6 C        2.927    -0.042    29.055     8.840
    40   6 C        2.938    -0.043    29.058     8.841
    41   1 H        0.862     0.175     1.243     1.747
    42   1 H        0.928     0.101     1.772     2.082
    43   1 H        0.928     0.063     2.163     2.300
    44   1 H        0.861     0.187     1.173     1.696
    45   1 H        0.930     0.082     1.962     2.190
    46   1 H        0.925     0.054     2.270     2.356
    47   1 H        0.860     0.201     1.102     1.644
    48   1 H        0.928     0.065     2.136     2.286
    49   1 H        0.928     0.084     1.938     2.177
    50   1 H        0.916    -0.004     3.124     2.765
    51   1 H        0.915    -0.000     3.068     2.739
    52   1 H        0.923     0.073     2.055     2.242
    53   1 H        0.916     0.068     2.104     2.269
    54   1 H        0.858     0.206     1.077     1.626
    55   1 H        0.914     0.060     2.196     2.318
    56   1 H        0.861     0.187     1.176     1.699
    57   1 H        0.927     0.058     2.226     2.333
    58   1 H        0.924     0.052     2.295     2.369
    59   1 H        0.922     0.065     2.137     2.286
    60   1 H        0.924     0.056     2.252     2.347
    61   1 H        0.924     0.086     1.916     2.164
    62   1 H        0.859     0.220     1.011     1.575
    63   1 H        0.914     0.042     2.426     2.436
    64   1 H        0.924     0.079     1.993     2.207
    65   1 H        0.928     0.031     2.573     2.508
    66   1 H        0.858     0.153     1.378     1.839
    67   1 H        0.927     0.026     2.637     2.539
    68   1 H        0.928     0.023     2.693     2.566
    69   1 H        0.927     0.022     2.706     2.572
    70   1 H        0.926     0.018     2.758     2.597

 Mol. C6AA /au·bohr⁶  :      56135.878111
 Mol. C8AA /au·bohr⁸  :    1290731.451078
 Mol. α(0) /au        :        359.270919


Wiberg/Mayer (AO) data.
largest (>0.10) Wiberg bond orders for each atom

 ---------------------------------------------------------------------------
     #   Z sym  total        # sym  WBO       # sym  WBO       # sym  WBO
 ---------------------------------------------------------------------------
     1   7 N    3.383 --     7 C    1.205     2 C    0.999    41 H    0.943
                             9 O    0.167
     2   6 C    3.970 --     1 N    0.999    43 H    0.964    42 H    0.954
                             3 C    0.948
     3   6 C    3.938 --     4 O    1.732     5 N    1.188     2 C    0.948
     4   8 O    2.050 --     3 C    1.732     5 N    0.182
     5   7 N    3.373 --     3 C    1.188     6 C    0.961    44 H    0.935
                             4 O    0.182
     6   6 C    3.961 --    45 H    0.966     5 N    0.961    31 C    0.958
                            29 C    0.950
     7   6 C    3.949 --     9 O    1.652     1 N    1.205     8 C    1.011
     8   6 C    3.961 --     7 C    1.011    46 H    0.958    10 N    0.951
                            11 C    0.935
     9   8 O    1.956 --     7 C    1.652     1 N    0.167
    10   7 N    3.482 --    12 C    1.296     8 C    0.951    47 H    0.924
                            15 O    0.213
    11   6 C    3.963 --    13 C    0.991    48 H    0.975    49 H    0.964
                             8 C    0.935
    12   6 C    3.958 --    15 O    1.644    10 N    1.296    14 C    0.965
    13   6 C    3.939 --    11 C    0.991    51 H    0.981    50 H    0.977
                            16 C    0.876
    14   6 C    3.965 --    17 N    0.990    12 C    0.965    52 H    0.958
                            53 H    0.946
    15   8 O    1.969 --    12 C    1.644    10 N    0.213
    16   6 C    3.944 --    18 O    1.561    19 O    1.490    13 C    0.876
    17   7 N    3.410 --    20 C    1.261    14 C    0.990    54 H    0.902
                            22 O    0.184
    18   8 O    1.872 --    16 C    1.561    19 O    0.238
    19   8 O    1.792 --    16 C    1.490    18 O    0.238
    20   6 C    3.946 --    22 O    1.716    17 N    1.261    21 C    0.890
    21   6 C    3.957 --    24 C    1.010    23 N    0.973    55 H    0.953
                            20 C    0.890
    22   8 O    2.037 --    20 C    1.716    17 N    0.184
    23   7 N    3.473 --    25 C    1.306    21 C    0.973    56 H    0.932
                            27 O    0.187
    24   6 C    3.988 --    21 C    1.010    58 H    0.981    57 H    0.981
                            59 H    0.977
    25   6 C    3.949 --    27 O    1.612    23 N    1.306    26 C    0.957
    26   6 C    3.977 --    28 N    1.016    60 H    0.958    25 C    0.957
                            61 H    0.939
    27   8 O    1.921 --    25 C    1.612    23 N    0.187
    28   7 N    3.334 --    29 C    1.185    26 C    1.016    62 H    0.897
                            30 O    0.167
    29   6 C    3.935 --    30 O    1.710    28 N    1.185     6 C    0.950
    30   8 O    2.008 --    29 C    1.710    28 N    0.167
    31   6 C    3.983 --    32 C    1.014    63 H    0.971    64 H    0.969
                             6 C    0.958
    32   6 C    3.967 --    33 C    1.556    34 C    1.220    31 C    1.014
    33   6 C    3.928 --    32 C    1.556    35 N    1.199    65 H    0.970
    34   6 C    3.978 --    37 C    1.315    36 C    1.244    32 C    1.220
    35   7 N    3.518 --    33 C    1.199    36 C    1.162    66 H    0.939
    36   6 C    3.959 --    38 C    1.362    34 C    1.244    35 N    1.162
    37   6 C    3.971 --    39 C    1.495    34 C    1.315    67 H    0.970
                            38 C    0.111
    38   6 C    3.967 --    40 C    1.445    36 C    1.362    68 H    0.972
                            37 C    0.111
    39   6 C    3.990 --    37 C    1.495    40 C    1.398    69 H    0.970
    40   6 C    3.975 --    38 C    1.445    39 C    1.398    70 H    0.973
    41   1 H    0.969 --     1 N    0.943
    42   1 H    0.989 --     2 C    0.954
    43   1 H    0.996 --     2 C    0.964
    44   1 H    0.964 --     5 N    0.935
    45   1 H    0.993 --     6 C    0.966
    46   1 H    0.997 --     8 C    0.958
    47   1 H    0.960 --    10 N    0.924
    48   1 H    0.996 --    11 C    0.975
    49   1 H    0.992 --    11 C    0.964
    50   1 H    0.999 --    13 C    0.977
    51   1 H    0.999 --    13 C    0.981
    52   1 H    0.994 --    14 C    0.958
    53   1 H    0.995 --    14 C    0.946
    54   1 H    0.957 --    17 N    0.902
    55   1 H    0.996 --    21 C    0.953
    56   1 H    0.965 --    23 N    0.932
    57   1 H    0.996 --    24 C    0.981
    58   1 H    0.997 --    24 C    0.981
    59   1 H    0.996 --    24 C    0.977
    60   1 H    0.996 --    26 C    0.958
    61   1 H    0.992 --    26 C    0.939
    62   1 H    0.951 --    28 N    0.897
    63   1 H    0.998 --    31 C    0.971
    64   1 H    0.993 --    31 C    0.969
    65   1 H    0.998 --    33 C    0.970
    66   1 H    0.975 --    35 N    0.939
    67   1 H    0.999 --    37 C    0.970
    68   1 H    0.999 --    38 C    0.972
    69   1 H    0.999 --    39 C    0.970
    70   1 H    0.999 --    40 C    0.973
 ---------------------------------------------------------------------------

Topologies differ in total number of bonds
Writing topology from bond orders to xtbtopo.mol

molecular dipole:
                 x           y           z       tot (Debye)
 q only:        5.478       9.971       9.498
   full:        5.527      10.150       9.939      38.744
molecular quadrupole (traceless):
                xx          xy          yy          xz          yz          zz
 q only:       48.338     -89.688     -20.825     -85.259    -135.472     -27.512
  q+dip:       39.004     -92.193      -9.274     -86.204    -141.468     -29.730
   full:       41.835     -93.226     -10.708     -87.187    -140.733     -31.126


           -------------------------------------------------
          | TOTAL ENERGY             -122.030974352723 Eh   |
          | GRADIENT NORM               0.329509512161 Eh/α |
          | HOMO-LUMO GAP               0.175826461059 eV   |
           -------------------------------------------------

------------------------------------------------------------------------
 * finished run on 2026/05/23 at 08:13:01.427     
------------------------------------------------------------------------
 total:
 * wall-time:     0 d,  0 h,  0 min, 13.190 sec
 *  cpu-time:     0 d,  0 h,  0 min, 27.580 sec
 * ratio c/w:     2.091 speedup
 SCF:
 * wall-time:     0 d,  0 h,  0 min, 12.727 sec
 *  cpu-time:     0 d,  0 h,  0 min, 26.572 sec
 * ratio c/w:     2.088 speedup

normal termination of xtb
