      -----------------------------------------------------------      
     |                   =====================                   |     
     |                           x T B                           |     
     |                   =====================                   |     
     |                         S. Grimme                         |     
     |          Mulliken Center for Theoretical Chemistry        |     
     |                    University of Bonn                     |     
      -----------------------------------------------------------      

   * xtb version 6.7.1 (26dd68d) compiled by 'froitzheim@fs7' on 2026-05-14

   xtb is free software: you can redistribute it and/or modify it under
   the terms of the GNU Lesser General Public License as published by
   the Free Software Foundation, either version 3 of the License, or
   (at your option) any later version.
   
   xtb is distributed in the hope that it will be useful,
   but WITHOUT ANY WARRANTY; without even the implied warranty of
   MERCHANTABILITY or FITNESS FOR A PARTICULAR PURPOSE.  See the
   GNU Lesser General Public License for more details.
   
   Cite this work as:
   * C. Bannwarth, E. Caldeweyher, S. Ehlert, A. Hansen, P. Pracht,
     J. Seibert, S. Spicher, S. Grimme, WIREs Comput. Mol. Sci., 2020, 11,
     e01493. DOI: 10.1002/wcms.1493
   
   for g-xTB:
   * T. Froitzheim, M. Müller, A. Hansen, S. Grimme, ChemRxiv, 2025, preprint.
     DOI: 10.26434/chemrxiv-2025-bjxv
   for GFN2-xTB:
   * C. Bannwarth, S. Ehlert and S. Grimme., J. Chem. Theory Comput., 2019,
     15, 1652-1671. DOI: 10.1021/acs.jctc.8b01176
   for GFN1-xTB:
   * S. Grimme, C. Bannwarth, P. Shushkov, J. Chem. Theory Comput., 2017,
     13, 1989-2009. DOI: 10.1021/acs.jctc.7b00118
   for GFN0-xTB:
   * P. Pracht, E. Caldeweyher, S. Ehlert, S. Grimme, ChemRxiv, 2019, preprint.
     DOI: 10.26434/chemrxiv.8326202.v1
   for GFN-FF:
   * S. Spicher and S. Grimme, Angew. Chem. Int. Ed., 2020, 59, 15665-15673.
     DOI: 10.1002/anie.202004239
   
   for ALPB and GBSA implicit solvation:
   * S. Ehlert, M. Stahn, S. Spicher, S. Grimme, J. Chem. Theory Comput.,
     2021, 17, 4250-4261. DOI: 10.1021/acs.jctc.1c00471
   
   for ddCOSMO and CPCM-X implicit solvation:
   * M. Stahn, S. Ehlert, S. Grimme, J. Phys. Chem. A,
     2023, XX, XXXX-XXXX. DOI: 10.1021/acs.jpca.3c04382
   
   for DFT-D4:
   * E. Caldeweyher, C. Bannwarth and S. Grimme, J. Chem. Phys., 2017,
     147, 034112. DOI: 10.1063/1.4993215
   * E. Caldeweyher, S. Ehlert, A. Hansen, H. Neugebauer, S. Spicher,
     C. Bannwarth and S. Grimme, J. Chem. Phys., 2019, 150, 154122.
     DOI: 10.1063/1.5090222
   * E. Caldeweyher, J.-M. Mewes, S. Ehlert and S. Grimme, Phys. Chem. Chem. Phys.
     2020, 22, 8499-8512. DOI: 10.1039/D0CP00502A
   
   for sTDA-xTB:
   * S. Grimme and C. Bannwarth, J. Chem. Phys., 2016, 145, 054103.
     DOI: 10.1063/1.4959605
   
   in the mass-spec context:
   * V. Asgeirsson, C. Bauer and S. Grimme, Chem. Sci., 2017, 8, 4879.
     DOI: 10.1039/c7sc00601b
   * J. Koopman and S. Grimme, ACS Omega 2019, 4, 12, 15120-15133.
     DOI: 10.1021/acsomega.9b02011
   
   for metadynamics refer to:
   * S. Grimme, J. Chem. Theory Comput., 2019, 155, 2847-2862
     DOI: 10.1021/acs.jctc.9b00143
   
   for SPH calculations refer to:
   * S. Spicher and S. Grimme, J. Chem. Theory Comput., 2021, 17, 1701-1714
     DOI: 10.1021/acs.jctc.0c01306
   
   for ONIOM refer to:
   * C. Plett, A. Katbashev, S. Ehlert, S. Grimme, M. Bursch,
     Phys. Chem. Chem. Phys., 2023, 25, 17860-17868. DOI: 10.1039/D3CP02178E
   
   for DIPRO refer to:
   * J. Kohn, N. Gildemeister, S. Grimme, D. Fazzi, A. Hansen,
     J. Chem. Phys. 159, 144106 (2023). DOI: 10.1063/5.0167484
   
   for PTB refer to:
   * S. Grimme, M. Mueller, A. Hansen, J. Chem. Phys., 2023, 158, 124111.
     DOI: 10.1063/5.0137838
   
   with help from (in alphabetical order)
   P. Atkinson, C. Bannwarth, F. Bohle, G. Brandenburg, E. Caldeweyher,
   M. Checinski, S. Dohm, S. Ehlert, S. Ehrlich, M. Friede, T. Froitzheim,
   I. Gerasimov, C. Hölzer, A. Katbashev, J. Kohn, J. Koopman, C. Lavigne,
   S. Lehtola, F. März, M. Müller, F. Musil, H. Neugebauer, J. Pisarek,
   C. Plett, P. Pracht, F. Pultar, J. Seibert, P. Shushkov, S. Spicher,
   M. Stahn, M. Steiner, T. Strunk, J. Stückrath, T. Rose, and J. Unsleber
   
 * started run on 2026/05/23 at 12:43:39.431     
   ID    Z sym.   atoms
    1    7 N      1, 5, 10, 17, 27, 34, 39, 43, 54, 56, 57
    2    6 C      2, 3, 6-8, 11-14, 16, 18, 21-23, 28-31, 33, 35-38, 40,
                  44-48, 50-53, 55, 58
    3    8 O      4, 9, 15, 19, 20, 24-26, 32, 41, 49
    4   16 S      42
    5    1 H      59-117

           -------------------------------------------------
          |                Calculation Setup                |
           -------------------------------------------------

          program call               : /home/xchen/software/xtb-6.7.1-gxtb/bin/xtb /home/xchen/Test/benchmark/md_sampled/04_7_0231_n2/snap_0071.xyz --charge -2 --gxtb --norestart
          coordinate file            : /home/xchen/Test/benchmark/md_sampled/04_7_0231_n2/snap_0071.xyz
          omp threads                :                    48

core increment energy         -2.9312527735450E+03 Eh
dispersion energy              2.4605137891915E-02 Eh
molecular charge              -2.0000000000000E+00 e
number of electrons            3.2799999999710E+02 e
number of unpaired electrons   0.0000000000000E+00 e
wavefunction                   restricted
integral cutoff                2.6907767250513E+01 bohr
energy convergence             1.0000000000000E-06 Eh
density convergence            2.0000000000000E-05 e

------------------------------------------------------------
  cycle        total energy    energy error   density error
------------------------------------------------------------
      1     -3195.883333357  -2.6465516E+02   0.0000000E+00
      2     -3196.378070034  -4.9473668E-01   2.0674688E-02
      3     -3196.695216806  -3.1714677E-01   1.6224380E-02
      4     -3197.367110813  -6.7189401E-01   1.2789046E-02
      5     -3197.377121747  -1.0010935E-02   8.4103609E-04
      6     -3197.377962753  -8.4100636E-04   1.7288330E-04
      7     -3197.378039032  -7.6278183E-05   5.3807889E-05
      8     -3197.378044134  -5.1019967E-06   1.5734005E-05
      9     -3197.378044767  -6.3311415E-07   3.0475796E-06
------------------------------------------------------------

electronic energy             -2.6614987635963E+02 Eh
total energy                  -3.1973780447667E+03 Eh

Post processing:
 | Mayer-Wiberg bond orders
 | Molecular Multipole Moments

 total:                                  37.445 sec
 - increment                              0.000 sec (  0%)
 - repulsion                              0.021 sec (  0%)
 - dispersion                             0.813 sec (  2%)
 - coulomb                                0.270 sec (  0%)
 - exchange                               0.006 sec (  0%)
 - hamiltonian                           21.607 sec ( 57%)
 - acp                                    0.540 sec (  1%)
 - spin polarization                      0.000 sec (  0%)
 - post processing                        0.248 sec (  0%)
 - scc                                   12.606 sec ( 33%)
 - coulomb gradient                       0.115 sec (  0%)
 - dispersion gradient                    0.063 sec (  0%)
 - exchange gradient                      0.165 sec (  0%)
 - repulsion gradient                     0.009 sec (  0%)
 - acp gradient                           0.483 sec (  1%)
 - hamiltonian gradient                   0.737 sec (  1%)
 - gradient                               1.573 sec (  4%)

         :::::::::::::::::::::::::::::::::::::::::::::::::::::
         ::                     SUMMARY                     ::
         :::::::::::::::::::::::::::::::::::::::::::::::::::::
         :: total energy           -3197.378044766742 Eh    ::
         :: gradient norm              0.405072469494 Eh/a0 ::
         :: HOMO-LUMO gap              6.134086366654 eV    ::
         ::.................................................::
         :: add. restraining           0.000000000000 Eh    ::
         :: total charge              -2.000000000000 e     ::
         :::::::::::::::::::::::::::::::::::::::::::::::::::::

           -------------------------------------------------
          |                Property Printout                |
           -------------------------------------------------

    * Orbital Energies and Occupations
------------------------------------------------------------------
      #    Occupation            Energy/Eh            Energy/eV
------------------------------------------------------------------
      1        2.0000           -1.2155281             -33.0762
    ...           ...                  ...                  ...
    152        2.0000           -0.2058941              -5.6027
    153        2.0000           -0.2037605              -5.5446
    154        2.0000           -0.1933273              -5.2607
    155        2.0000           -0.1913738              -5.2075
    156        2.0000           -0.1871044              -5.0914
    157        2.0000           -0.1752336              -4.7683
    158        2.0000           -0.1687132              -4.5909
    159        2.0000           -0.1647878              -4.4841
    160        2.0000           -0.1557072              -4.2370
    161        2.0000           -0.1442888              -3.9263
    162        2.0000           -0.1255357              -3.4160
    163        2.0000           -0.1075100              -2.9255
    164        2.0000           -0.0998180              -2.7162 (HOMO)
    165                          0.1256055               3.4179 (LUMO)
    166                          0.1276579               3.4737
    167                          0.1443679               3.9285
    168                          0.1495209               4.0687
    169                          0.1540986               4.1932
    170                          0.1552652               4.2250
    171                          0.1744068               4.7459
    172                          0.2017838               5.4908
    173                          0.2035385               5.5386
    174                          0.2306645               6.2767
    175                          0.2416612               6.5759
    ...                                ...                  ...
    296                          0.9316940              25.3527
------------------------------------------------------------------
               HL-Gap            0.2254235 Eh            6.1341 eV
------------------------------------------------------------------

Atomic charges and shell populations (in atomic units):
-----------------------------------------------------------------
     #    Z                q          p(s)       p(p)       p(d)
-----------------------------------------------------------------
     1    7 N      -0.308901      1.351167   3.957734
     2    6 C       0.002149      1.112373   2.885478
     3    6 C       0.458136      1.098368   2.443496
     4    8 O      -0.547608      1.852450   4.695158
     5    7 N      -0.348488      1.363204   3.985284
     6    6 C       0.007080      1.107962   2.884957
     7    6 C       0.425661      1.101353   2.472986
     8    6 C      -0.020361      1.108047   2.912314
     9    8 O      -0.546449      1.845850   4.700599
    10    7 N      -0.318534      1.393723   3.924811
    11    6 C      -0.148911      1.153676   2.995235
    12    6 C       0.415713      1.098865   2.485422
    13    6 C      -0.217120      1.175167   3.041953
    14    6 C      -0.007034      1.112671   2.894363
    15    8 O      -0.576609      1.851501   4.725108
    16    6 C       0.516226      1.084248   2.399526
    17    7 N      -0.398377      1.400427   3.997950
    18    6 C      -0.222123      1.153688   3.068435
    19    8 O      -0.711844      1.857590   4.854253
    20    8 O      -0.698592      1.856169   4.842422
    21    6 C       0.399959      1.129009   2.471032
    22    6 C       0.510146      1.073304   2.416550
    23    6 C       0.007812      1.142553   2.849635
    24    8 O      -0.575737      1.857913   4.717823
    25    8 O      -0.670836      1.859293   4.811543
    26    8 O      -0.650959      1.836486   4.814473
    27    7 N      -0.329224      1.388605   3.940619
    28    6 C      -0.175462      1.150238   3.025224
    29    6 C       0.397293      1.118929   2.483778
    30    6 C      -0.195405      1.147787   3.047619
    31    6 C      -0.002980      1.132312   2.870668
    32    8 O      -0.527798      1.861234   4.666564
    33    6 C      -0.182419      1.165292   3.017126
    34    7 N      -0.336700      1.385371   3.951328
    35    6 C      -0.177886      1.153888   3.023998
    36    6 C      -0.110414      1.131021   2.979393
    37    6 C       0.409134      1.096165   2.494701
    38    6 C      -0.148149      1.172846   2.975303
    39    7 N      -0.523576      1.442714   4.080862
    40    6 C      -0.002381      1.139295   2.863086
    41    8 O      -0.533156      1.857860   4.675297
    42   16 S      -0.235020      1.882301   4.271692   0.081027
    43    7 N      -0.354150      1.354370   3.999781
    44    6 C      -0.125098      1.168198   2.956900
    45    6 C      -0.221775      1.185573   3.036202
    46    6 C       0.393627      1.117048   2.489325
    47    6 C      -0.271933      1.177056   3.094877
    48    6 C      -0.181487      1.156636   3.024852
    49    8 O      -0.516134      1.858232   4.657901
    50    6 C      -0.258706      1.162624   3.096082
    51    6 C      -0.177341      1.145655   3.031686
    52    6 C      -0.189862      1.157723   3.032139
    53    6 C      -0.099971      1.166674   2.933297
    54    7 N      -0.407089      1.429658   3.977431
    55    6 C       0.280247      1.111032   2.608721
    56    7 N      -0.506299      1.630393   3.875906
    57    7 N      -0.472426      1.438112   4.034314
    58    6 C      -0.246445      1.166650   3.079795
    59    1 H       0.253139      0.746861
    60    1 H       0.116535      0.883465
    61    1 H       0.296888      0.703112
    62    1 H       0.084140      0.915860
    63    1 H       0.119062      0.880938
    64    1 H       0.283659      0.716341
    65    1 H       0.114788      0.885212
    66    1 H       0.083888      0.916112
    67    1 H       0.083799      0.916201
    68    1 H       0.095869      0.904131
    69    1 H       0.116789      0.883211
    70    1 H       0.334002      0.665998
    71    1 H       0.124159      0.875841
    72    1 H       0.121726      0.878274
    73    1 H       0.119914      0.880086
    74    1 H       0.271791      0.728209
    75    1 H       0.095186      0.904814
    76    1 H       0.119536      0.880464
    77    1 H       0.114019      0.885981
    78    1 H       0.097471      0.902529
    79    1 H       0.125136      0.874864
    80    1 H       0.115783      0.884217
    81    1 H       0.064108      0.935892
    82    1 H       0.272345      0.727655
    83    1 H       0.102189      0.897811
    84    1 H       0.134967      0.865033
    85    1 H       0.088463      0.911537
    86    1 H       0.084903      0.915097
    87    1 H       0.123429      0.876571
    88    1 H       0.098063      0.901937
    89    1 H       0.256090      0.743910
    90    1 H       0.217918      0.782082
    91    1 H       0.134498      0.865502
    92    1 H       0.254349      0.745651
    93    1 H       0.110664      0.889336
    94    1 H       0.114946      0.885054
    95    1 H       0.128478      0.871522
    96    1 H       0.108100      0.891900
    97    1 H       0.100665      0.899335
    98    1 H       0.099871      0.900129
    99    1 H       0.105017      0.894983
   100    1 H       0.081303      0.918697
   101    1 H       0.102525      0.897475
   102    1 H       0.080664      0.919336
   103    1 H       0.087903      0.912097
   104    1 H       0.103327      0.896673
   105    1 H       0.124637      0.875363
   106    1 H       0.092455      0.907545
   107    1 H       0.099846      0.900154
   108    1 H       0.111083      0.888917
   109    1 H       0.105033      0.894967
   110    1 H       0.100695      0.899305
   111    1 H       0.263160      0.736840
   112    1 H       0.203925      0.796075
   113    1 H       0.241722      0.758278
   114    1 H       0.242193      0.757807
   115    1 H       0.153728      0.846272
   116    1 H       0.060102      0.939898
   117    1 H       0.113940      0.886060
-----------------------------------------------------------------


Wiberg/Mayer (AO) data.
largest (>0.10) Wiberg bond orders for each atom

 ---------------------------------------------------------------------------
     #   Z sym  total        # sym  WBO       # sym  WBO       # sym  WBO
 ---------------------------------------------------------------------------
     1   7 N    3.342 --     7 C    1.232     2 C    0.982    59 N    0.891
                             9 C    0.153
     2   6 C    3.948 --     1 N    0.982    51 C    0.979    60 N    0.937
                             3 C    0.927
     3   6 C    3.860 --     4 C    1.664     5 N    1.170     2 C    0.927
     4   8 C    1.934 --     3 C    1.664     5 N    0.144
     5   7 N    3.282 --     3 C    1.170     6 C    1.007    61 N    0.855
                             4 C    0.144
     6   6 C    3.957 --     5 N    1.007    58 C    0.996    62 N    0.923
                            46 C    0.920
     7   6 C    3.851 --     9 C    1.627     1 N    1.232     8 C    0.907
     8   6 C    3.938 --    11 C    0.981    10 N    0.978    63 N    0.939
                             7 C    0.907
     9   8 C    1.955 --     7 C    1.627     1 N    0.153
    10   7 N    3.308 --    12 C    1.211     8 C    0.978    64 N    0.854
                            15 C    0.151
    11   6 C    3.951 --    13 C    1.000     8 C    0.981    66 N    0.955
                            65 N    0.941
    12   6 C    3.869 --    15 C    1.636    10 N    1.211    14 C    0.943
    13   6 C    3.953 --    11 C    1.000    68 N    0.965    67 N    0.963
                            16 C    0.888
    14   6 C    3.946 --    18 C    0.978    17 N    0.974    12 C    0.943
                            69 N    0.932
    15   8 C    1.904 --    12 C    1.636    10 N    0.151
    16   6 C    3.858 --    20 C    1.489    19 C    1.459    13 C    0.888
    17   7 N    3.294 --    21 C    1.293    14 C    0.974    70 N    0.683
                            24 C    0.166
    18   6 C    3.952 --    14 C    0.978    72 N    0.958    22 C    0.937
                            71 N    0.935
    19   8 C    1.737 --    16 C    1.459    20 C    0.193
    20   8 C    1.757 --    16 C    1.489    19 C    0.193
    21   6 C    3.862 --    24 C    1.611    17 N    1.293    23 C    0.878
    22   6 C    3.862 --    25 C    1.493    26 C    1.399    18 C    0.937
    23   6 C    3.911 --    28 C    0.987    27 N    0.946    73 N    0.944
                            21 C    0.878
    24   8 C    1.914 --    21 C    1.611    17 N    0.166
    25   8 C    1.771 --    22 C    1.493    26 C    0.182
    26   8 C    1.897 --    22 C    1.399    25 C    0.182    70 N    0.176
    27   7 N    3.324 --    29 C    1.245    23 C    0.946    74 N    0.885
                            32 C    0.164
    28   6 C    3.957 --    30 C    1.002    23 C    0.987    75 N    0.954
                            76 N    0.948
    29   6 C    3.874 --    32 C    1.661    27 N    1.245    31 C    0.907
    30   6 C    3.963 --    33 C    1.013    28 C    1.002    78 N    0.959
                            77 N    0.950
    31   6 C    3.927 --    35 C    0.980    34 N    0.962    79 N    0.939
                            29 C    0.907
    32   8 C    1.952 --    29 C    1.661    27 N    0.164
    33   6 C    3.961 --    30 C    1.013    36 C    0.983    81 N    0.962
                            80 N    0.952
    34   7 N    3.291 --    37 C    1.204    31 C    0.962    82 N    0.872
                            41 C    0.153
    35   6 C    3.956 --    38 C    1.007    31 C    0.980    83 N    0.955
                            84 N    0.943
    36   6 C    3.959 --    39 N    1.039    33 C    0.983    86 N    0.961
                            85 N    0.955
    37   6 C    3.884 --    41 C    1.659    34 N    1.204    40 C    0.950
    38   6 C    3.941 --    35 C    1.007    42 O    0.986    88 N    0.953
                            87 N    0.952
    39   7 N    2.951 --    36 C    1.039    90 N    0.934    89 N    0.900
    40   6 C    3.927 --    44 C    0.964    43 N    0.953    37 C    0.950
                            91 N    0.938
    41   8 C    1.926 --    37 C    1.659    34 N    0.153
    42  16 O    2.089 --    45 C    0.999    38 C    0.986
    43   7 N    3.296 --    46 C    1.192    40 C    0.953    92 N    0.897
                            49 C    0.151
    44   6 C    3.961 --    47 C    1.000    48 C    0.983    40 C    0.964
                            93 N    0.950
    45   6 C    3.925 --    42 O    0.999    96 N    0.969    94 N    0.965
                            95 N    0.964
    46   6 C    3.858 --    49 C    1.670    43 N    1.192     6 C    0.920
    47   6 C    3.955 --    44 C    1.000    97 N    0.976    98 N    0.973
                            99 N    0.971
    48   6 C    3.964 --    50 C    1.035    44 C    0.983   100 N    0.961
                           101 N    0.945
    49   8 C    1.966 --    46 C    1.670    43 N    0.151
    50   6 C    3.962 --    48 C    1.035   102 N    0.973   103 N    0.971
                           104 N    0.964
    51   6 C    3.964 --    52 C    1.022     2 C    0.979   105 N    0.952
                           106 N    0.950
    52   6 C    3.959 --    51 C    1.022    53 C    0.986   108 N    0.959
                           107 N    0.954
    53   6 C    3.927 --    52 C    0.986    54 N    0.976   110 N    0.962
                           109 N    0.956
    54   7 N    3.130 --    55 C    1.071    53 C    0.976   111 N    0.891
                            56 N    0.107
    55   6 C    3.931 --    56 N    1.735    57 N    1.089    54 N    1.071
    56   7 N    2.895 --    55 C    1.735   112 N    0.914    54 N    0.107
    57   7 N    3.084 --    55 C    1.089   113 N    0.920   114 N    0.919
    58   6 C    3.942 --     6 C    0.996   116 N    0.972   117 N    0.961
                           115 N    0.946
    59   1 N    0.936 --     1 N    0.891
    60   1 N    0.986 --     2 C    0.937
    61   1 N    0.912 --     5 N    0.855
    62   1 N    0.993 --     6 C    0.923
    63   1 N    0.986 --     8 C    0.939
    64   1 N    0.920 --    10 N    0.854
    65   1 N    0.987 --    11 C    0.941
    66   1 N    0.993 --    11 C    0.955
    67   1 N    0.993 --    13 C    0.963
    68   1 N    0.991 --    13 C    0.965
    69   1 N    0.986 --    14 C    0.932
    70   1 N    0.888 --    17 N    0.683    26 C    0.176
    71   1 N    0.985 --    18 C    0.935
    72   1 N    0.985 --    18 C    0.958
    73   1 N    0.986 --    23 C    0.944
    74   1 N    0.926 --    27 N    0.885
    75   1 N    0.991 --    28 C    0.954
    76   1 N    0.986 --    28 C    0.948
    77   1 N    0.987 --    30 C    0.950
    78   1 N    0.990 --    30 C    0.959
    79   1 N    0.984 --    31 C    0.939
    80   1 N    0.987 --    33 C    0.952
    81   1 N    0.996 --    33 C    0.962
    82   1 N    0.926 --    34 N    0.872
    83   1 N    0.990 --    35 C    0.955
    84   1 N    0.982 --    35 C    0.943
    85   1 N    0.992 --    36 C    0.955
    86   1 N    0.993 --    36 C    0.961
    87   1 N    0.985 --    38 C    0.952
    88   1 N    0.990 --    38 C    0.953
    89   1 N    0.934 --    39 N    0.900
    90   1 N    0.953 --    39 N    0.934
    91   1 N    0.982 --    40 C    0.938
    92   1 N    0.935 --    43 N    0.897
    93   1 N    0.988 --    44 C    0.950
    94   1 N    0.987 --    45 C    0.965
    95   1 N    0.983 --    45 C    0.964
    96   1 N    0.988 --    45 C    0.969
    97   1 N    0.990 --    47 C    0.976
    98   1 N    0.990 --    47 C    0.973
    99   1 N    0.989 --    47 C    0.971
   100   1 N    0.993 --    48 C    0.961
   101   1 N    0.989 --    48 C    0.945
   102   1 N    0.993 --    50 C    0.973
   103   1 N    0.992 --    50 C    0.971
   104   1 N    0.989 --    50 C    0.964
   105   1 N    0.984 --    51 C    0.952
   106   1 N    0.991 --    51 C    0.950
   107   1 N    0.990 --    52 C    0.954
   108   1 N    0.988 --    52 C    0.959
   109   1 N    0.989 --    53 C    0.956
   110   1 N    0.990 --    53 C    0.962
   111   1 N    0.931 --    54 N    0.891
   112   1 N    0.958 --    56 N    0.914
   113   1 N    0.942 --    57 N    0.920
   114   1 N    0.941 --    57 N    0.919
   115   1 N    0.976 --    58 C    0.946
   116   1 N    0.996 --    58 C    0.972
   117   1 N    0.987 --    58 C    0.961
 ---------------------------------------------------------------------------

Topologies differ in total number of bonds
Writing topology from bond orders to xtbtopo.mol

Atomic dipole moments (in atomic units):
---------------------------------------------------------
     #    Z                 x            y            z
---------------------------------------------------------
           total     2.984691    15.670517     1.991052
---------------------------------------------------------
         |total|    16.076000    40.861117 Debye


           -------------------------------------------------
          | TOTAL ENERGY            -3197.378044766742 Eh   |
          | GRADIENT NORM               0.405072469494 Eh/α |
           -------------------------------------------------

------------------------------------------------------------------------
 * finished run on 2026/05/23 at 12:44:17.979     
------------------------------------------------------------------------
 total:
 * wall-time:     0 d,  0 h,  0 min, 38.548 sec
 *  cpu-time:     0 d,  0 h,  0 min, 47.007 sec
 * ratio c/w:     1.219 speedup
 SCF:
 * wall-time:     0 d,  0 h,  0 min, 38.194 sec
 *  cpu-time:     0 d,  0 h,  0 min, 46.468 sec
 * ratio c/w:     1.217 speedup

normal termination of xtb
