      -----------------------------------------------------------      
     |                   =====================                   |     
     |                           x T B                           |     
     |                   =====================                   |     
     |                         S. Grimme                         |     
     |          Mulliken Center for Theoretical Chemistry        |     
     |                    University of Bonn                     |     
      -----------------------------------------------------------      

   * xtb version 6.7.1 (edcfbbe) compiled by 'albert@albert-system' on 2024-07-22

   xtb is free software: you can redistribute it and/or modify it under
   the terms of the GNU Lesser General Public License as published by
   the Free Software Foundation, either version 3 of the License, or
   (at your option) any later version.
   
   xtb is distributed in the hope that it will be useful,
   but WITHOUT ANY WARRANTY; without even the implied warranty of
   MERCHANTABILITY or FITNESS FOR A PARTICULAR PURPOSE.  See the
   GNU Lesser General Public License for more details.
   
   Cite this work as:
   * C. Bannwarth, E. Caldeweyher, S. Ehlert, A. Hansen, P. Pracht,
     J. Seibert, S. Spicher, S. Grimme, WIREs Comput. Mol. Sci., 2020, 11,
     e01493. DOI: 10.1002/wcms.1493
   
   for GFN2-xTB:
   * C. Bannwarth, S. Ehlert and S. Grimme., J. Chem. Theory Comput., 2019,
     15, 1652-1671. DOI: 10.1021/acs.jctc.8b01176
   for GFN1-xTB:
   * S. Grimme, C. Bannwarth, P. Shushkov, J. Chem. Theory Comput., 2017,
     13, 1989-2009. DOI: 10.1021/acs.jctc.7b00118
   for GFN0-xTB:
   * P. Pracht, E. Caldeweyher, S. Ehlert, S. Grimme, ChemRxiv, 2019, preprint.
     DOI: 10.26434/chemrxiv.8326202.v1
   for GFN-FF:
   * S. Spicher and S. Grimme, Angew. Chem. Int. Ed., 2020, 59, 15665-15673.
     DOI: 10.1002/anie.202004239
   
   for ALPB and GBSA implicit solvation:
   * S. Ehlert, M. Stahn, S. Spicher, S. Grimme, J. Chem. Theory Comput.,
     2021, 17, 4250-4261. DOI: 10.1021/acs.jctc.1c00471
   
   for ddCOSMO and CPCM-X implicit solvation:
   * M. Stahn, S. Ehlert, S. Grimme, J. Phys. Chem. A,
     2023, XX, XXXX-XXXX. DOI: 10.1021/acs.jpca.3c04382
   
   for DFT-D4:
   * E. Caldeweyher, C. Bannwarth and S. Grimme, J. Chem. Phys., 2017,
     147, 034112. DOI: 10.1063/1.4993215
   * E. Caldeweyher, S. Ehlert, A. Hansen, H. Neugebauer, S. Spicher,
     C. Bannwarth and S. Grimme, J. Chem. Phys., 2019, 150, 154122.
     DOI: 10.1063/1.5090222
   * E. Caldeweyher, J.-M. Mewes, S. Ehlert and S. Grimme, Phys. Chem. Chem. Phys.
     2020, 22, 8499-8512. DOI: 10.1039/D0CP00502A
   
   for sTDA-xTB:
   * S. Grimme and C. Bannwarth, J. Chem. Phys., 2016, 145, 054103.
     DOI: 10.1063/1.4959605
   
   in the mass-spec context:
   * V. Asgeirsson, C. Bauer and S. Grimme, Chem. Sci., 2017, 8, 4879.
     DOI: 10.1039/c7sc00601b
   * J. Koopman and S. Grimme, ACS Omega 2019, 4, 12, 15120-15133.
     DOI: 10.1021/acsomega.9b02011
   
   for metadynamics refer to:
   * S. Grimme, J. Chem. Theory Comput., 2019, 155, 2847-2862
     DOI: 10.1021/acs.jctc.9b00143
   
   for SPH calculations refer to:
   * S. Spicher and S. Grimme, J. Chem. Theory Comput., 2021, 17, 1701-1714
     DOI: 10.1021/acs.jctc.0c01306
   
   for ONIOM refer to:
   * C. Plett, A. Katbashev, S. Ehlert, S. Grimme, M. Bursch,
     Phys. Chem. Chem. Phys., 2023, 25, 17860-17868. DOI: 10.1039/D3CP02178E
   
   for DIPRO refer to:
   * J. Kohn, N. Gildemeister, S. Grimme, D. Fazzi, A. Hansen,
     J. Chem. Phys., 2023, just accepted.
   
   for PTB refer to:
   * S. Grimme, M. Mueller, A. Hansen, J. Chem. Phys., 2023, 158, 124111.
     DOI: 10.1063/5.0137838
   
   with help from (in alphabetical order)
   P. Atkinson, C. Bannwarth, F. Bohle, G. Brandenburg, E. Caldeweyher
   M. Checinski, S. Dohm, S. Ehlert, S. Ehrlich, I. Gerasimov, C. Hölzer
   A. Katbashev, J. Kohn, J. Koopman, C. Lavigne, S. Lehtola, F. März, M. Müller,
   F. Musil, H. Neugebauer, J. Pisarek, C. Plett, P. Pracht, F. Pultar,
   J. Seibert, P. Shushkov, S. Spicher, M. Stahn, M. Steiner, T. Strunk,
   J. Stückrath, T. Rose, and J. Unsleber
   
 * started run on 2026/05/23 at 12:51:31.550     
   ID    Z sym.   atoms
    1    7 N      1, 5, 10, 18, 29, 37, 45, 48
    2    6 C      2, 3, 6-8, 11-14, 16, 17, 19-25, 27, 28, 30-33, 35, 36,
                  38-43, 46, 47, 49-56
    3    8 O      4, 9, 15, 26, 34, 44
    4    1 H      57-114

           -------------------------------------------------
          |                Calculation Setup                |
           -------------------------------------------------

          program call               : /home/xchen/software/xtb-6.7.1/xtb-dist/bin/xtb /home/xchen/Test/benchmark/md_sampled/10_6_0573_0/snap_0142.xyz --charge 0 --gfn 2 --norestart
          coordinate file            : /home/xchen/Test/benchmark/md_sampled/10_6_0573_0/snap_0142.xyz
          omp threads                :                    48


           -------------------------------------------------
          |                 G F N 2 - x T B                 |
           -------------------------------------------------

        Reference                      10.1021/acs.jctc.8b01176
      * Hamiltonian:
        H0-scaling (s, p, d)           1.850000    2.230000    2.230000
        zeta-weighting                 0.500000
      * Dispersion:
        s8                             2.700000
        a1                             0.520000
        a2                             5.000000
        s9                             5.000000
      * Repulsion:
        kExp                           1.500000    1.000000
        rExp                           1.000000
      * Coulomb:
        alpha                          2.000000
        third order                    shell-resolved
        anisotropic                    true
        a3                             3.000000
        a5                             4.000000
        cn-shift                       1.200000
        cn-exp                         4.000000
        max-rad                        5.000000


          ...................................................
          :                      SETUP                      :
          :.................................................:
          :  # basis functions                 282          :
          :  # atomic orbitals                 282          :
          :  # shells                          170          :
          :  # electrons                       302          :
          :  max. iterations                   250          :
          :  Hamiltonian                  GFN2-xTB          :
          :  restarted?                      false          :
          :  GBSA solvation                  false          :
          :  PC potential                    false          :
          :  electronic temp.          300.0000000     K    :
          :  accuracy                    1.0000000          :
          :  -> integral cutoff          0.2500000E+02      :
          :  -> integral neglect         0.1000000E-07      :
          :  -> SCF convergence          0.1000000E-05 Eh   :
          :  -> wf. convergence          0.1000000E-03 e    :
          :  Broyden damping             0.4000000          :
          :  net charge                          0          :
          :  unpaired electrons                  0          :
          ...................................................

 iter      E             dE          RMSdq      gap      omega  full diag
   1   -168.8961050 -0.168896E+03  0.389E+00    3.29       0.0  T
   2   -169.3160896 -0.419985E+00  0.220E+00    2.73       1.0  T
   3   -169.3421298 -0.260402E-01  0.120E+00    3.12       1.0  T
   4   -169.3468799 -0.475004E-02  0.292E-01    3.00       1.0  T
   5   -169.3556348 -0.875493E-02  0.101E-01    3.14       1.0  T
   6   -169.3559729 -0.338117E-03  0.537E-02    3.12       1.0  T
   7   -169.3560837 -0.110823E-03  0.244E-02    3.12       1.0  T
   8   -169.3560979 -0.141473E-04  0.836E-03    3.12       1.1  T
   9   -169.3561002 -0.229838E-05  0.387E-03    3.12       2.4  T
  10   -169.3561006 -0.398703E-06  0.157E-03    3.12       6.0  T
  11   -169.3561006 -0.470957E-07  0.699E-04    3.12      13.4  T
  12   -169.3561006 -0.154130E-07  0.256E-04    3.12      36.6  T

   *** convergence criteria satisfied after 12 iterations ***

         #    Occupation            Energy/Eh            Energy/eV
      -------------------------------------------------------------
         1        2.0000           -0.7320995             -19.9214
       ...           ...                  ...                  ...
       145        2.0000           -0.3977352             -10.8229
       146        2.0000           -0.3907868             -10.6339
       147        2.0000           -0.3889430             -10.5837
       148        2.0000           -0.3841325             -10.4528
       149        2.0000           -0.3827069             -10.4140
       150        2.0000           -0.3744040             -10.1881
       151        2.0000           -0.3724830             -10.1358 (HOMO)
       152                         -0.2578668              -7.0169 (LUMO)
       153                         -0.2572906              -7.0012
       154                         -0.2520001              -6.8573
       155                         -0.2469050              -6.7186
       156                         -0.2357095              -6.4140
       ...                                ...                  ...
       282                          0.6646086              18.0849
      -------------------------------------------------------------
                  HL-Gap            0.1146163 Eh            3.1189 eV
             Fermi-level           -0.3151749 Eh           -8.5763 eV

 SCC (total)                   0 d,  0 h,  0 min, 10.387 sec
 SCC setup                      ...        0 min,  0.027 sec (  0.262%)
 Dispersion                     ...        0 min,  0.150 sec (  1.444%)
 classical contributions        ...        0 min,  0.009 sec (  0.085%)
 integral evaluation            ...        0 min,  0.563 sec (  5.417%)
 iterations                     ...        0 min,  9.009 sec ( 86.734%)
 molecular gradient             ...        0 min,  0.612 sec (  5.896%)
 printout                       ...        0 min,  0.017 sec (  0.160%)

         :::::::::::::::::::::::::::::::::::::::::::::::::::::
         ::                     SUMMARY                     ::
         :::::::::::::::::::::::::::::::::::::::::::::::::::::
         :: total energy            -167.180139628870 Eh    ::
         :: gradient norm              0.385989945545 Eh/a0 ::
         :: HOMO-LUMO gap              3.118867384903 eV    ::
         ::.................................................::
         :: SCC energy              -169.348490488493 Eh    ::
         :: -> isotropic ES            0.247375431422 Eh    ::
         :: -> anisotropic ES          0.024950878702 Eh    ::
         :: -> anisotropic XC          0.079037142750 Eh    ::
         :: -> dispersion             -0.141327731859 Eh    ::
         :: repulsion energy           2.168350859623 Eh    ::
         :: add. restraining           0.000000000000 Eh    ::
         :: total charge              -0.000000000000 e     ::
         :::::::::::::::::::::::::::::::::::::::::::::::::::::

           -------------------------------------------------
          |                Property Printout                |
           -------------------------------------------------

    * Orbital Energies and Occupations

         #    Occupation            Energy/Eh            Energy/eV
      -------------------------------------------------------------
         1        2.0000           -0.7320995             -19.9214
       ...           ...                  ...                  ...
       139        2.0000           -0.4175202             -11.3613
       140        2.0000           -0.4170778             -11.3493
       141        2.0000           -0.4156595             -11.3107
       142        2.0000           -0.4132869             -11.2461
       143        2.0000           -0.4075483             -11.0900
       144        2.0000           -0.4026910             -10.9578
       145        2.0000           -0.3977352             -10.8229
       146        2.0000           -0.3907868             -10.6339
       147        2.0000           -0.3889430             -10.5837
       148        2.0000           -0.3841325             -10.4528
       149        2.0000           -0.3827069             -10.4140
       150        2.0000           -0.3744040             -10.1881
       151        2.0000           -0.3724830             -10.1358 (HOMO)
       152                         -0.2578668              -7.0169 (LUMO)
       153                         -0.2572906              -7.0012
       154                         -0.2520001              -6.8573
       155                         -0.2469050              -6.7186
       156                         -0.2357095              -6.4140
       157                         -0.2346375              -6.3848
       158                         -0.2249090              -6.1201
       159                         -0.2204156              -5.9978
       160                         -0.2186041              -5.9485
       161                         -0.2125728              -5.7844
       162                         -0.2038595              -5.5473
       ...                                ...                  ...
       282                          0.6646086              18.0849
      -------------------------------------------------------------
                  HL-Gap            0.1146163 Eh            3.1189 eV
             Fermi-level           -0.3151749 Eh           -8.5763 eV

     #   Z          covCN         q      C6AA      α(0)
     1   7 N        2.680    -0.200    25.336     7.476
     2   6 C        3.796     0.025    20.154     6.392
     3   6 C        2.750     0.268    22.476     7.763
     4   8 O        0.862    -0.414    21.969     6.284
     5   7 N        2.686    -0.190    25.128     7.445
     6   6 C        3.796     0.018    20.277     6.412
     7   6 C        2.747     0.266    22.504     7.768
     8   6 C        3.782     0.022    20.221     6.406
     9   8 O        0.857    -0.433    22.345     6.338
    10   7 N        2.695    -0.171    24.699     7.381
    11   6 C        3.806    -0.057    21.591     6.615
    12   6 C        2.744     0.249    22.820     7.822
    13   6 C        2.952     0.011    27.767     8.643
    14   6 C        3.767     0.007    20.491     6.451
    15   8 O        0.860    -0.458    22.882     6.413
    16   6 C        2.919    -0.040    28.992     8.830
    17   6 C        2.935    -0.035    28.881     8.814
    18   7 N        2.686    -0.200    25.349     7.478
    19   6 C        3.787    -0.056    21.593     6.618
    20   6 C        2.898    -0.035    28.879     8.811
    21   6 C        2.896    -0.032    28.788     8.797
    22   6 C        2.740     0.262    22.585     7.781
    23   6 C        3.848    -0.000    20.551     6.448
    24   6 C        2.915    -0.026    28.659     8.779
    25   6 C        3.771     0.031    20.091     6.387
    26   8 O        0.861    -0.387    21.425     6.206
    27   6 C        3.729    -0.109    22.685     6.799
    28   6 C        3.734    -0.095    22.413     6.757
    29   7 N        2.688    -0.211    25.594     7.514
    30   6 C        3.812    -0.076    21.939     6.667
    31   6 C        2.737     0.269    22.454     7.758
    32   6 C        2.969     0.001    28.004     8.680
    33   6 C        3.785     0.013    20.371     6.429
    34   8 O        0.858    -0.371    21.117     6.161
    35   6 C        2.915    -0.055    29.356     8.885
    36   6 C        2.912    -0.049    29.209     8.862
    37   7 N        2.674    -0.182    24.940     7.417
    38   6 C        3.808    -0.079    22.009     6.678
    39   6 C        2.918    -0.031    28.777     8.797
    40   6 C        2.926    -0.029    28.731     8.790
    41   6 C        2.757     0.265    22.528     7.772
    42   6 C        3.168     0.065    26.188     8.361
    43   6 C        2.914    -0.018    28.451     8.747
    44   8 O        0.857    -0.436    22.416     6.348
    45   7 N        1.927    -0.276    27.991     7.845
    46   6 C        3.150    -0.034    28.551     8.740
    47   6 C        3.255     0.108    24.600     8.021
    48   7 N        2.764    -0.098    23.149     7.146
    49   6 C        3.835    -0.007    20.684     6.470
    50   6 C        3.774    -0.113    22.687     6.787
    51   6 C        3.804    -0.054    21.540     6.607
    52   6 C        3.719    -0.097    22.482     6.773
    53   6 C        3.860    -0.023    20.937     6.507
    54   6 C        3.755    -0.106    22.578     6.775
    55   6 C        3.787    -0.056    21.594     6.619
    56   6 C        3.744    -0.108    22.643     6.788
    57   1 H        0.861     0.192     1.147     1.677
    58   1 H        0.928     0.081     1.973     2.196
    59   1 H        0.858     0.162     1.320     1.800
    60   1 H        0.926     0.091     1.865     2.136
    61   1 H        0.925     0.081     1.972     2.196
    62   1 H        0.860     0.182     1.200     1.716
    63   1 H        0.926     0.047     2.357     2.401
    64   1 H        0.905     0.032     2.565     2.506
    65   1 H        0.926     0.110     1.692     2.034
    66   1 H        0.923     0.023     2.687     2.563
    67   1 H        0.923     0.038     2.479     2.462
    68   1 H        0.861     0.172     1.262     1.760
    69   1 H        0.918     0.027     2.637     2.540
    70   1 H        0.927     0.079     1.985     2.203
    71   1 H        0.927     0.046     2.366     2.405
    72   1 H        0.924     0.045     2.384     2.415
    73   1 H        0.925     0.045     2.383     2.414
    74   1 H        0.916     0.025     2.656     2.549
    75   1 H        0.922     0.068     2.105     2.269
    76   1 H        0.923     0.049     2.336     2.390
    77   1 H        0.909     0.020     2.731     2.585
    78   1 H        0.922     0.041     2.436     2.441
    79   1 H        0.910     0.022     2.704     2.572
    80   1 H        0.928     0.043     2.410     2.428
    81   1 H        0.914     0.025     2.657     2.550
    82   1 H        0.860     0.174     1.246     1.749
    83   1 H        0.924     0.056     2.251     2.346
    84   1 H        0.921     0.038     2.470     2.458
    85   1 H        0.925     0.087     1.908     2.160
    86   1 H        0.925     0.025     2.653     2.547
    87   1 H        0.925     0.043     2.407     2.426
    88   1 H        0.855     0.202     1.094     1.639
    89   1 H        0.929     0.094     1.841     2.122
    90   1 H        0.926     0.042     2.422     2.434
    91   1 H        0.928     0.042     2.424     2.435
    92   1 H        0.926     0.041     2.439     2.442
    93   1 H        0.924     0.037     2.494     2.470
    94   1 H        0.921     0.037     2.484     2.465
    95   1 H        0.915     0.018     2.764     2.601
    96   1 H        0.860     0.172     1.262     1.760
    97   1 H        0.899     0.018     2.776     2.607
    98   1 H        0.929     0.066     2.132     2.283
    99   1 H        0.926     0.062     2.175     2.306
   100   1 H        0.912     0.004     2.989     2.704
   101   1 H        0.917     0.055     2.258     2.350
   102   1 H        0.911     0.037     2.497     2.472
   103   1 H        0.914     0.043     2.410     2.428
   104   1 H        0.925     0.056     2.241     2.341
   105   1 H        0.900     0.026     2.654     2.549
   106   1 H        0.922     0.062     2.178     2.308
   107   1 H        0.927     0.046     2.372     2.409
   108   1 H        0.925     0.040     2.449     2.447
   109   1 H        0.922     0.021     2.715     2.577
   110   1 H        0.905     0.028     2.622     2.533
   111   1 H        0.924     0.010     2.887     2.657
   112   1 H        0.924     0.056     2.252     2.347
   113   1 H        0.922     0.042     2.426     2.436
   114   1 H        0.920     0.038     2.473     2.459

 Mol. C6AA /au·bohr⁶  :     129292.590046
 Mol. C8AA /au·bohr⁸  :    2949469.585244
 Mol. α(0) /au        :        548.533084


Wiberg/Mayer (AO) data.
largest (>0.10) Wiberg bond orders for each atom

 ---------------------------------------------------------------------------
     #   Z sym  total        # sym  WBO       # sym  WBO       # sym  WBO
 ---------------------------------------------------------------------------
     1   7 N    3.407 --     7 C    1.278     2 C    0.938    57 H    0.930
                             9 O    0.185
     2   6 C    3.956 --    49 C    0.975     3 C    0.970    58 H    0.944
                             1 N    0.938
     3   6 C    3.954 --     4 O    1.704     5 N    1.201     2 C    0.970
     4   8 O    2.022 --     3 C    1.704     5 N    0.197
     5   7 N    3.409 --     3 C    1.201     6 C    0.991    59 H    0.932
                             4 O    0.197
     6   6 C    3.963 --     5 N    0.991    53 C    0.981    60 H    0.945
                            41 C    0.914
     7   6 C    3.945 --     9 O    1.681     1 N    1.278     8 C    0.904
     8   6 C    3.963 --    10 N    0.994    11 C    0.971    61 H    0.946
                             7 C    0.904
     9   8 O    2.016 --     7 C    1.681     1 N    0.185
    10   7 N    3.457 --    12 C    1.275     8 C    0.994    62 H    0.906
                            15 O    0.189
    11   6 C    3.992 --    13 C    1.007     8 C    0.971    63 H    0.971
                            64 H    0.952
    12   6 C    3.945 --    15 O    1.660    10 N    1.275    14 C    0.933
    13   6 C    3.987 --    17 C    1.427    16 C    1.414    11 C    1.007
    14   6 C    3.946 --    18 N    0.974    19 C    0.957    65 H    0.940
                            12 C    0.933
    15   8 O    1.967 --    12 C    1.660    10 N    0.189
    16   6 C    3.987 --    20 C    1.427    13 C    1.414    66 H    0.967
                            21 C    0.117
    17   6 C    3.989 --    13 C    1.427    21 C    1.417    67 H    0.958
                            20 C    0.121
    18   7 N    3.409 --    22 C    1.214    14 C    0.974    68 H    0.929
                            26 O    0.192
    19   6 C    3.984 --    23 C    1.012    69 H    0.975    70 H    0.968
                            14 C    0.957
    20   6 C    3.987 --    24 C    1.435    16 C    1.427    71 H    0.973
                            17 C    0.121
    21   6 C    3.988 --    24 C    1.457    17 C    1.417    72 H    0.970
                            16 C    0.117
    22   6 C    3.943 --    26 O    1.751    18 N    1.214    25 C    0.894
    23   6 C    3.991 --    19 C    1.012    28 C    1.009    27 C    0.991
                            73 H    0.962
    24   6 C    3.988 --    21 C    1.457    20 C    1.435    74 H    0.967
    25   6 C    3.973 --    30 C    1.006    29 N    0.987    75 H    0.942
                            22 C    0.894
    26   8 O    2.065 --    22 C    1.751    18 N    0.192
    27   6 C    3.982 --    23 C    0.991    78 H    0.987    77 H    0.984
                            76 H    0.980
    28   6 C    3.992 --    23 C    1.009    80 H    0.984    81 H    0.983
                            79 H    0.982
    29   7 N    3.375 --    31 C    1.174    25 C    0.987    82 H    0.916
                            34 O    0.194
    30   6 C    3.994 --    25 C    1.006    32 C    0.991    84 H    0.961
                            83 H    0.956
    31   6 C    3.941 --    34 O    1.777    29 N    1.174    33 C    0.926
    32   6 C    3.986 --    35 C    1.459    36 C    1.388    30 C    0.991
    33   6 C    3.962 --    37 N    0.983    85 H    0.957    38 C    0.956
                            31 C    0.926
    34   8 O    2.088 --    31 C    1.777    29 N    0.194
    35   6 C    3.983 --    32 C    1.459    39 C    1.371    86 H    0.967
                            40 C    0.124
    36   6 C    3.988 --    40 C    1.447    32 C    1.388    87 H    0.964
                            39 C    0.120
    37   7 N    3.429 --    41 C    1.262    33 C    0.983    88 H    0.902
                            44 O    0.190
    38   6 C    3.988 --    42 C    1.019    89 H    0.956    33 C    0.956
                            90 H    0.938
    39   6 C    3.991 --    43 C    1.496    35 C    1.371    91 H    0.973
                            36 C    0.120
    40   6 C    3.989 --    36 C    1.447    43 C    1.414    92 H    0.970
                            35 C    0.124
    41   6 C    3.947 --    44 O    1.678    37 N    1.262     6 C    0.914
    42   6 C    3.977 --    46 C    1.596    45 N    1.240    38 C    1.019
    43   6 C    3.993 --    39 C    1.496    40 C    1.414    93 H    0.964
    44   8 O    1.996 --    41 C    1.678    37 N    0.190
    45   7 N    3.012 --    47 C    1.553    42 C    1.240    48 N    0.114
    46   6 C    3.922 --    42 C    1.596    48 N    1.153    94 H    0.966
                            47 C    0.111
    47   6 C    3.957 --    45 N    1.553    48 N    1.294    95 H    0.954
                            46 C    0.111
    48   7 N    3.568 --    47 C    1.294    46 C    1.153    96 H    0.936
                            45 N    0.114
    49   6 C    3.985 --    50 C    1.014    51 C    0.985     2 C    0.975
                            97 H    0.951
    50   6 C    3.986 --    49 C    1.014    98 H    0.981   100 H    0.978
                            99 H    0.970
    51   6 C    3.987 --    52 C    1.022    49 C    0.985   102 H    0.972
                           101 H    0.970
    52   6 C    3.992 --    51 C    1.022   104 H    0.984   103 H    0.984
                           105 H    0.974
    53   6 C    3.989 --    54 C    1.001    55 C    0.995     6 C    0.981
                           106 H    0.956
    54   6 C    3.994 --    53 C    1.001   109 H    0.985   107 H    0.984
                           108 H    0.982
    55   6 C    3.993 --    56 C    1.018    53 C    0.995   111 H    0.972
                           110 H    0.955
    56   6 C    3.991 --    55 C    1.018   114 H    0.988   113 H    0.985
                           112 H    0.978
    57   1 H    0.963 --     1 N    0.930
    58   1 H    0.993 --     2 C    0.944
    59   1 H    0.974 --     5 N    0.932
    60   1 H    0.991 --     6 C    0.945
    61   1 H    0.993 --     8 C    0.946
    62   1 H    0.967 --    10 N    0.906
    63   1 H    0.997 --    11 C    0.971
    64   1 H    0.998 --    11 C    0.952
    65   1 H    0.988 --    14 C    0.940
    66   1 H    0.999 --    16 C    0.967
    67   1 H    0.999 --    17 C    0.958
    68   1 H    0.970 --    18 N    0.929
    69   1 H    0.999 --    19 C    0.975
    70   1 H    0.993 --    19 C    0.968
    71   1 H    0.997 --    20 C    0.973
    72   1 H    0.998 --    21 C    0.970
    73   1 H    0.998 --    23 C    0.962
    74   1 H    0.999 --    24 C    0.967
    75   1 H    0.995 --    25 C    0.942
    76   1 H    0.998 --    27 C    0.980
    77   1 H    0.999 --    27 C    0.984
    78   1 H    0.998 --    27 C    0.987
    79   1 H    0.999 --    28 C    0.982
    80   1 H    0.998 --    28 C    0.984
    81   1 H    0.999 --    28 C    0.983
    82   1 H    0.969 --    29 N    0.916
    83   1 H    0.996 --    30 C    0.956
    84   1 H    0.999 --    30 C    0.961
    85   1 H    0.992 --    33 C    0.957
    86   1 H    0.999 --    35 C    0.967
    87   1 H    0.998 --    36 C    0.964
    88   1 H    0.959 --    37 N    0.902
    89   1 H    0.991 --    38 C    0.956
    90   1 H    0.998 --    38 C    0.938
    91   1 H    0.998 --    39 C    0.973
    92   1 H    0.998 --    40 C    0.970
    93   1 H    0.998 --    43 C    0.964
    94   1 H    0.999 --    46 C    0.966
    95   1 H    0.999 --    47 C    0.954
    96   1 H    0.970 --    48 N    0.936
    97   1 H    0.999 --    49 C    0.951
    98   1 H    0.996 --    50 C    0.981
    99   1 H    0.996 --    50 C    0.970
   100   1 H    1.000 --    50 C    0.978
   101   1 H    0.997 --    51 C    0.970
   102   1 H    0.999 --    51 C    0.972
   103   1 H    0.998 --    52 C    0.984
   104   1 H    0.996 --    52 C    0.984
   105   1 H    0.999 --    52 C    0.974
   106   1 H    0.996 --    53 C    0.956
   107   1 H    0.998 --    54 C    0.984
   108   1 H    0.998 --    54 C    0.982
   109   1 H    1.000 --    54 C    0.985
   110   1 H    0.999 --    55 C    0.955
   111   1 H    1.000 --    55 C    0.972
   112   1 H    0.996 --    56 C    0.978
   113   1 H    0.998 --    56 C    0.985
   114   1 H    0.998 --    56 C    0.988
 ---------------------------------------------------------------------------

Topologies differ in total number of bonds
Writing topology from bond orders to xtbtopo.mol

molecular dipole:
                 x           y           z       tot (Debye)
 q only:       -1.115       1.363      -4.034
   full:       -1.070       2.069      -4.262      12.345
molecular quadrupole (traceless):
                xx          xy          yy          xz          yz          zz
 q only:       39.366      36.466     -13.428      -3.509       2.586     -25.938
  q+dip:       55.316      38.656     -26.850       4.026       1.093     -28.466
   full:       54.443      41.814     -26.910       2.955       0.147     -27.533


           -------------------------------------------------
          | TOTAL ENERGY             -167.180139628870 Eh   |
          | GRADIENT NORM               0.385989945545 Eh/α |
          | HOMO-LUMO GAP               3.118867384903 eV   |
           -------------------------------------------------

------------------------------------------------------------------------
 * finished run on 2026/05/23 at 12:51:42.943     
------------------------------------------------------------------------
 total:
 * wall-time:     0 d,  0 h,  0 min, 11.392 sec
 *  cpu-time:     0 d,  0 h,  0 min, 24.009 sec
 * ratio c/w:     2.108 speedup
 SCF:
 * wall-time:     0 d,  0 h,  0 min, 10.389 sec
 *  cpu-time:     0 d,  0 h,  0 min, 22.384 sec
 * ratio c/w:     2.155 speedup

normal termination of xtb
