      -----------------------------------------------------------      
     |                   =====================                   |     
     |                           x T B                           |     
     |                   =====================                   |     
     |                         S. Grimme                         |     
     |          Mulliken Center for Theoretical Chemistry        |     
     |                    University of Bonn                     |     
      -----------------------------------------------------------      

   * xtb version 6.7.1 (edcfbbe) compiled by 'albert@albert-system' on 2024-07-22

   xtb is free software: you can redistribute it and/or modify it under
   the terms of the GNU Lesser General Public License as published by
   the Free Software Foundation, either version 3 of the License, or
   (at your option) any later version.
   
   xtb is distributed in the hope that it will be useful,
   but WITHOUT ANY WARRANTY; without even the implied warranty of
   MERCHANTABILITY or FITNESS FOR A PARTICULAR PURPOSE.  See the
   GNU Lesser General Public License for more details.
   
   Cite this work as:
   * C. Bannwarth, E. Caldeweyher, S. Ehlert, A. Hansen, P. Pracht,
     J. Seibert, S. Spicher, S. Grimme, WIREs Comput. Mol. Sci., 2020, 11,
     e01493. DOI: 10.1002/wcms.1493
   
   for GFN2-xTB:
   * C. Bannwarth, S. Ehlert and S. Grimme., J. Chem. Theory Comput., 2019,
     15, 1652-1671. DOI: 10.1021/acs.jctc.8b01176
   for GFN1-xTB:
   * S. Grimme, C. Bannwarth, P. Shushkov, J. Chem. Theory Comput., 2017,
     13, 1989-2009. DOI: 10.1021/acs.jctc.7b00118
   for GFN0-xTB:
   * P. Pracht, E. Caldeweyher, S. Ehlert, S. Grimme, ChemRxiv, 2019, preprint.
     DOI: 10.26434/chemrxiv.8326202.v1
   for GFN-FF:
   * S. Spicher and S. Grimme, Angew. Chem. Int. Ed., 2020, 59, 15665-15673.
     DOI: 10.1002/anie.202004239
   
   for ALPB and GBSA implicit solvation:
   * S. Ehlert, M. Stahn, S. Spicher, S. Grimme, J. Chem. Theory Comput.,
     2021, 17, 4250-4261. DOI: 10.1021/acs.jctc.1c00471
   
   for ddCOSMO and CPCM-X implicit solvation:
   * M. Stahn, S. Ehlert, S. Grimme, J. Phys. Chem. A,
     2023, XX, XXXX-XXXX. DOI: 10.1021/acs.jpca.3c04382
   
   for DFT-D4:
   * E. Caldeweyher, C. Bannwarth and S. Grimme, J. Chem. Phys., 2017,
     147, 034112. DOI: 10.1063/1.4993215
   * E. Caldeweyher, S. Ehlert, A. Hansen, H. Neugebauer, S. Spicher,
     C. Bannwarth and S. Grimme, J. Chem. Phys., 2019, 150, 154122.
     DOI: 10.1063/1.5090222
   * E. Caldeweyher, J.-M. Mewes, S. Ehlert and S. Grimme, Phys. Chem. Chem. Phys.
     2020, 22, 8499-8512. DOI: 10.1039/D0CP00502A
   
   for sTDA-xTB:
   * S. Grimme and C. Bannwarth, J. Chem. Phys., 2016, 145, 054103.
     DOI: 10.1063/1.4959605
   
   in the mass-spec context:
   * V. Asgeirsson, C. Bauer and S. Grimme, Chem. Sci., 2017, 8, 4879.
     DOI: 10.1039/c7sc00601b
   * J. Koopman and S. Grimme, ACS Omega 2019, 4, 12, 15120-15133.
     DOI: 10.1021/acsomega.9b02011
   
   for metadynamics refer to:
   * S. Grimme, J. Chem. Theory Comput., 2019, 155, 2847-2862
     DOI: 10.1021/acs.jctc.9b00143
   
   for SPH calculations refer to:
   * S. Spicher and S. Grimme, J. Chem. Theory Comput., 2021, 17, 1701-1714
     DOI: 10.1021/acs.jctc.0c01306
   
   for ONIOM refer to:
   * C. Plett, A. Katbashev, S. Ehlert, S. Grimme, M. Bursch,
     Phys. Chem. Chem. Phys., 2023, 25, 17860-17868. DOI: 10.1039/D3CP02178E
   
   for DIPRO refer to:
   * J. Kohn, N. Gildemeister, S. Grimme, D. Fazzi, A. Hansen,
     J. Chem. Phys., 2023, just accepted.
   
   for PTB refer to:
   * S. Grimme, M. Mueller, A. Hansen, J. Chem. Phys., 2023, 158, 124111.
     DOI: 10.1063/5.0137838
   
   with help from (in alphabetical order)
   P. Atkinson, C. Bannwarth, F. Bohle, G. Brandenburg, E. Caldeweyher
   M. Checinski, S. Dohm, S. Ehlert, S. Ehrlich, I. Gerasimov, C. Hölzer
   A. Katbashev, J. Kohn, J. Koopman, C. Lavigne, S. Lehtola, F. März, M. Müller,
   F. Musil, H. Neugebauer, J. Pisarek, C. Plett, P. Pracht, F. Pultar,
   J. Seibert, P. Shushkov, S. Spicher, M. Stahn, M. Steiner, T. Strunk,
   J. Stückrath, T. Rose, and J. Unsleber
   
 * started run on 2026/05/23 at 08:12:48.223     
   ID    Z sym.   atoms
    1    7 N      1, 5, 10, 17, 23, 28, 35
    2    6 C      2, 3, 6-8, 11-14, 16, 20, 21, 24-26, 29, 31-34, 36-40
    3    8 O      4, 9, 15, 18, 19, 22, 27, 30
    4    1 H      41-70

           -------------------------------------------------
          |                Calculation Setup                |
           -------------------------------------------------

          program call               : /home/xchen/software/xtb-6.7.1/xtb-dist/bin/xtb /home/xchen/Test/benchmark/md_sampled/01_6_0109_n1/snap_0004.xyz --charge -1 --gfn 2 --norestart
          coordinate file            : /home/xchen/Test/benchmark/md_sampled/01_6_0109_n1/snap_0004.xyz
          omp threads                :                    48


           -------------------------------------------------
          |                 G F N 2 - x T B                 |
           -------------------------------------------------

        Reference                      10.1021/acs.jctc.8b01176
      * Hamiltonian:
        H0-scaling (s, p, d)           1.850000    2.230000    2.230000
        zeta-weighting                 0.500000
      * Dispersion:
        s8                             2.700000
        a1                             0.520000
        a2                             5.000000
        s9                             5.000000
      * Repulsion:
        kExp                           1.500000    1.000000
        rExp                           1.000000
      * Coulomb:
        alpha                          2.000000
        third order                    shell-resolved
        anisotropic                    true
        a3                             3.000000
        a5                             4.000000
        cn-shift                       1.200000
        cn-exp                         4.000000
        max-rad                        5.000000


          ...................................................
          :                      SETUP                      :
          :.................................................:
          :  # basis functions                 190          :
          :  # atomic orbitals                 190          :
          :  # shells                          110          :
          :  # electrons                       214          :
          :  max. iterations                   250          :
          :  Hamiltonian                  GFN2-xTB          :
          :  restarted?                      false          :
          :  GBSA solvation                  false          :
          :  PC potential                    false          :
          :  electronic temp.          300.0000000     K    :
          :  accuracy                    1.0000000          :
          :  -> integral cutoff          0.2500000E+02      :
          :  -> integral neglect         0.1000000E-07      :
          :  -> SCF convergence          0.1000000E-05 Eh   :
          :  -> wf. convergence          0.1000000E-03 e    :
          :  Broyden damping             0.4000000          :
          :  net charge                         -1          :
          :  unpaired electrons                  0          :
          ...................................................

 iter      E             dE          RMSdq      gap      omega  full diag
   1   -122.9106343 -0.122911E+03  0.458E+00    3.01       0.0  T
   2   -123.2934791 -0.382845E+00  0.247E+00    1.87       1.0  T
   3   -123.3156844 -0.222053E-01  0.148E+00    0.59       1.0  T
   4   -120.0159966  0.329969E+01  0.430E+00    0.15       1.0  T
   5   -123.3135573 -0.329756E+01  0.669E-01    1.10       1.0  T
   6   -123.3383827 -0.248255E-01  0.192E-01    0.40       1.0  T
   7   -123.3392463 -0.863570E-03  0.138E-01    0.43       1.0  T
   8   -123.3392515 -0.516428E-05  0.112E-01    0.42       1.0  T
   9   -123.3393839 -0.132375E-03  0.101E-01    0.39       1.0  T
  10   -123.3395175 -0.133633E-03  0.927E-02    0.34       1.0  T
  11   -123.3396771 -0.159645E-03  0.841E-02    0.30       1.0  T
  12   -123.3398064 -0.129263E-03  0.777E-02    0.28       1.0  T
  13   -123.3397943  0.120947E-04  0.783E-02    0.28       1.0  T
  14   -123.3400976 -0.303274E-03  0.626E-02    0.25       1.0  T
  15   -123.3404035 -0.305952E-03  0.433E-02    0.22       1.0  T
  16   -123.3403927  0.107886E-04  0.440E-02    0.22       1.0  T
  17   -123.3396661  0.726612E-03  0.854E-02    0.15       1.0  T
  18   -123.3391139  0.552207E-03  0.105E-01    0.15       1.0  T
  19   -123.3383631  0.750821E-03  0.127E-01    0.14       1.0  T
  20   -123.3368373  0.152576E-02  0.160E-01    0.13       1.0  T
  21   -123.3381014 -0.126406E-02  0.131E-01    0.14       1.0  T
  22   -123.3406175 -0.251610E-02  0.237E-02    0.17       1.0  T
  23   -123.3406033  0.142323E-04  0.252E-02    0.17       1.0  T
  24   -123.3406582 -0.549039E-04  0.163E-02    0.18       1.0  T
  25   -123.3406753 -0.171494E-04  0.121E-02    0.18       1.0  T
  26   -123.3406931 -0.177761E-04  0.509E-03    0.18       2.3  T
  27   -123.3406945 -0.141615E-05  0.393E-03    0.18       3.0  T
  28   -123.3406956 -0.105335E-05  0.283E-03    0.18       4.2  T
  29   -123.3406964 -0.862073E-06  0.137E-03    0.18       8.7  T
  30   -123.3406966 -0.194230E-06  0.684E-04    0.18      17.5  T
  31   -123.3406967 -0.621272E-07  0.156E-04    0.18      76.6  T

   *** convergence criteria satisfied after 31 iterations ***

         #    Occupation            Energy/Eh            Energy/eV
      -------------------------------------------------------------
         1        2.0000           -0.6487890             -17.6544
       ...           ...                  ...                  ...
       101        2.0000           -0.3064915              -8.3401
       102        2.0000           -0.3041784              -8.2771
       103        2.0000           -0.3024239              -8.2294
       104        2.0000           -0.2935670              -7.9884
       105        2.0000           -0.2136787              -5.8145
       106        2.0000           -0.2049263              -5.5763
       107        1.9360           -0.1931891              -5.2569 (HOMO)
       108        0.0465           -0.1863977              -5.0721 (LUMO)
       109        0.0174           -0.1854510              -5.0464
       110        0.0001           -0.1804588              -4.9105
       111        0.0000           -0.1770545              -4.8179
       112                         -0.1716876              -4.6719
       ...                                ...                  ...
       190                          0.7329184              19.9437
      -------------------------------------------------------------
                  HL-Gap            0.0067915 Eh            0.1848 eV
             Fermi-level           -0.1899495 Eh           -5.1688 eV

 SCC (total)                   0 d,  0 h,  0 min, 14.441 sec
 SCC setup                      ...        0 min,  0.025 sec (  0.173%)
 Dispersion                     ...        0 min,  0.110 sec (  0.760%)
 classical contributions        ...        0 min,  0.007 sec (  0.050%)
 integral evaluation            ...        0 min,  0.226 sec (  1.566%)
 iterations                     ...        0 min, 13.740 sec ( 95.143%)
 molecular gradient             ...        0 min,  0.325 sec (  2.248%)
 printout                       ...        0 min,  0.009 sec (  0.060%)

         :::::::::::::::::::::::::::::::::::::::::::::::::::::
         ::                     SUMMARY                     ::
         :::::::::::::::::::::::::::::::::::::::::::::::::::::
         :: total energy            -122.020066640184 Eh    ::
         :: gradient norm              0.355069283240 Eh/a0 ::
         :: HOMO-LUMO gap              0.184805400197 eV    ::
         ::.................................................::
         :: SCC energy              -123.339273165984 Eh    ::
         :: -> isotropic ES            0.419959642884 Eh    ::
         :: -> anisotropic ES          0.012574915091 Eh    ::
         :: -> anisotropic XC          0.034400382630 Eh    ::
         :: -> dispersion             -0.079269906005 Eh    ::
         :: repulsion energy           1.319206525800 Eh    ::
         :: add. restraining           0.000000000000 Eh    ::
         :: total charge              -1.000000000000 e     ::
         :::::::::::::::::::::::::::::::::::::::::::::::::::::

           -------------------------------------------------
          |                Property Printout                |
           -------------------------------------------------

    * Orbital Energies and Occupations

         #    Occupation            Energy/Eh            Energy/eV
      -------------------------------------------------------------
         1        2.0000           -0.6487890             -17.6544
       ...           ...                  ...                  ...
        95        2.0000           -0.3328855              -9.0583
        96        2.0000           -0.3321897              -9.0393
        97        2.0000           -0.3247210              -8.8361
        98        2.0000           -0.3212577              -8.7419
        99        2.0000           -0.3173602              -8.6358
       100        2.0000           -0.3110164              -8.4632
       101        2.0000           -0.3064915              -8.3401
       102        2.0000           -0.3041784              -8.2771
       103        2.0000           -0.3024239              -8.2294
       104        2.0000           -0.2935670              -7.9884
       105        2.0000           -0.2136787              -5.8145
       106        2.0000           -0.2049263              -5.5763
       107        1.9360           -0.1931891              -5.2569 (HOMO)
       108        0.0465           -0.1863977              -5.0721 (LUMO)
       109        0.0174           -0.1854510              -5.0464
       110        0.0001           -0.1804588              -4.9105
       111        0.0000           -0.1770545              -4.8179
       112                         -0.1716876              -4.6719
       113                         -0.1490191              -4.0550
       114                         -0.1435014              -3.9049
       115                         -0.1373225              -3.7367
       116                         -0.1269329              -3.4540
       117                         -0.0330997              -0.9007
       118                         -0.0304462              -0.8285
       ...                                ...                  ...
       190                          0.7329184              19.9437
      -------------------------------------------------------------
                  HL-Gap            0.0067915 Eh            0.1848 eV
             Fermi-level           -0.1899495 Eh           -5.1688 eV

     #   Z          covCN         q      C6AA      α(0)
     1   7 N        2.682    -0.158    24.412     7.338
     2   6 C        3.711     0.005    20.626     6.490
     3   6 C        2.754     0.272    22.403     7.751
     4   8 O        0.859    -0.417    22.032     6.293
     5   7 N        2.685    -0.183    24.971     7.422
     6   6 C        3.771     0.026    20.164     6.399
     7   6 C        2.750     0.260    22.611     7.786
     8   6 C        3.784     0.021    20.231     6.407
     9   8 O        0.859    -0.428    22.249     6.324
    10   7 N        2.684    -0.158    24.411     7.338
    11   6 C        3.792    -0.034    21.182     6.554
    12   6 C        2.747     0.250    22.803     7.819
    13   6 C        3.812    -0.070    21.828     6.650
    14   6 C        3.746    -0.024    21.069     6.547
    15   8 O        0.858    -0.452    22.757     6.396
    16   6 C        2.689     0.335    21.302     7.553
    17   7 N        2.675    -0.185    25.019     7.429
    18   8 O        0.855    -0.560    25.160     6.725
    19   8 O        0.854    -0.595    25.999     6.836
    20   6 C        2.765     0.264    22.554     7.778
    21   6 C        3.788     0.040    19.917     6.356
    22   8 O        0.858    -0.422    22.124     6.306
    23   7 N        2.684    -0.169    24.657     7.375
    24   6 C        3.747    -0.111    22.698     6.795
    25   6 C        2.743     0.267    22.494     7.766
    26   6 C        3.709    -0.007    20.840     6.525
    27   8 O        0.859    -0.450    22.704     6.388
    28   7 N        2.681    -0.184    24.991     7.425
    29   6 C        2.741     0.277    22.315     7.734
    30   8 O        0.857    -0.425    22.180     6.314
    31   6 C        3.797    -0.067    21.780     6.645
    32   6 C        2.976    -0.041    29.019     8.836
    33   6 C        2.905    -0.012    28.319     8.726
    34   6 C        3.085    -0.011    28.188     8.703
    35   7 N        2.761    -0.135    23.931     7.266
    36   6 C        2.975     0.049    26.889     8.506
    37   6 C        2.912    -0.040    28.993     8.829
    38   6 C        2.898    -0.059    29.461     8.899
    39   6 C        2.940    -0.046    29.142     8.854
    40   6 C        2.935    -0.045    29.128     8.851
    41   1 H        0.857     0.174     1.251     1.752
    42   1 H        0.900     0.076     2.023     2.226
    43   1 H        0.915     0.039     2.469     2.458
    44   1 H        0.857     0.170     1.274     1.769
    45   1 H        0.913     0.055     2.259     2.351
    46   1 H        0.924     0.062     2.174     2.306
    47   1 H        0.861     0.195     1.131     1.666
    48   1 H        0.920     0.058     2.227     2.334
    49   1 H        0.916     0.056     2.243     2.343
    50   1 H        0.927     0.024     2.669     2.555
    51   1 H        0.924     0.008     2.924     2.674
    52   1 H        0.923     0.073     2.057     2.243
    53   1 H        0.928     0.089     1.887     2.148
    54   1 H        0.854     0.171     1.269     1.765
    55   1 H        0.927     0.047     2.358     2.401
    56   1 H        0.855     0.171     1.265     1.762
    57   1 H        0.915     0.039     2.467     2.457
    58   1 H        0.924     0.058     2.225     2.333
    59   1 H        0.927     0.071     2.072     2.251
    60   1 H        0.908     0.067     2.126     2.281
    61   1 H        0.911     0.059     2.213     2.327
    62   1 H        0.860     0.239     0.926     1.507
    63   1 H        0.925     0.055     2.260     2.351
    64   1 H        0.919     0.073     2.055     2.242
    65   1 H        0.927     0.038     2.469     2.457
    66   1 H        0.861     0.151     1.393     1.849
    67   1 H        0.928     0.032     2.562     2.503
    68   1 H        0.924     0.023     2.691     2.565
    69   1 H        0.927     0.020     2.735     2.586
    70   1 H        0.929     0.029     2.595     2.519

 Mol. C6AA /au·bohr⁶  :      56254.496185
 Mol. C8AA /au·bohr⁸  :    1292585.854276
 Mol. α(0) /au        :        359.916265


Wiberg/Mayer (AO) data.
largest (>0.10) Wiberg bond orders for each atom

 ---------------------------------------------------------------------------
     #   Z sym  total        # sym  WBO       # sym  WBO       # sym  WBO
 ---------------------------------------------------------------------------
     1   7 N    3.411 --     7 C    1.235     2 C    0.995    41 H    0.930
                             9 O    0.174
     2   6 C    3.968 --     1 N    0.995     3 C    0.970    43 H    0.965
                            42 H    0.944
     3   6 C    3.951 --     4 O    1.688     5 N    1.225     2 C    0.970
     4   8 O    2.007 --     3 C    1.688     5 N    0.183
     5   7 N    3.405 --     3 C    1.225     6 C    0.982    44 H    0.934
                             4 O    0.183
     6   6 C    3.956 --     5 N    0.982    31 C    0.971    45 H    0.960
                            29 C    0.902
     7   6 C    3.946 --     9 O    1.687     1 N    1.235     8 C    0.953
     8   6 C    3.947 --    10 N    0.961    46 H    0.957     7 C    0.953
                            11 C    0.931
     9   8 O    1.987 --     7 C    1.687     1 N    0.174
    10   7 N    3.488 --    12 C    1.316     8 C    0.961    47 H    0.930
                            15 O    0.211
    11   6 C    3.979 --    13 C    1.030    48 H    0.970    49 H    0.963
                             8 C    0.931
    12   6 C    3.952 --    15 O    1.642    10 N    1.316    14 C    0.933
    13   6 C    3.966 --    11 C    1.030    50 H    0.971    51 H    0.970
                            16 C    0.901
    14   6 C    3.956 --    17 N    0.987    52 H    0.964    53 H    0.958
                            12 C    0.933
    15   8 O    1.969 --    12 C    1.642    10 N    0.211
    16   6 C    3.944 --    18 O    1.555    19 O    1.461    13 C    0.901
    17   7 N    3.368 --    20 C    1.213    14 C    0.987    54 H    0.927
                            22 O    0.177
    18   8 O    1.854 --    16 C    1.555    19 O    0.237
    19   8 O    1.751 --    16 C    1.461    18 O    0.237
    20   6 C    3.947 --    22 O    1.707    17 N    1.213    21 C    0.945
    21   6 C    3.972 --    24 C    0.995    23 N    0.971    55 H    0.956
                            20 C    0.945
    22   8 O    2.007 --    20 C    1.707    17 N    0.177
    23   7 N    3.375 --    25 C    1.245    21 C    0.971    56 H    0.919
                            27 O    0.166
    24   6 C    3.988 --    21 C    0.995    59 H    0.985    57 H    0.981
                            58 H    0.980
    25   6 C    3.935 --    27 O    1.679    23 N    1.245    26 C    0.941
    26   6 C    3.977 --    28 N    1.013    60 H    0.957    61 H    0.952
                            25 C    0.941
    27   8 O    1.969 --    25 C    1.679    23 N    0.166
    28   7 N    3.361 --    29 C    1.227    26 C    1.013    62 H    0.883
                            30 O    0.171
    29   6 C    3.939 --    30 O    1.725    28 N    1.227     6 C    0.902
    30   8 O    2.022 --    29 C    1.725    28 N    0.171
    31   6 C    3.987 --    32 C    1.011     6 C    0.971    63 H    0.968
                            64 H    0.963
    32   6 C    3.959 --    33 C    1.618    34 C    1.142    31 C    1.011
    33   6 C    3.934 --    32 C    1.618    35 N    1.183    65 H    0.969
    34   6 C    3.976 --    37 C    1.348    36 C    1.293    32 C    1.142
    35   7 N    3.499 --    33 C    1.183    36 C    1.136    66 H    0.953
    36   6 C    3.951 --    38 C    1.332    34 C    1.293    35 N    1.136
    37   6 C    3.970 --    39 C    1.470    34 C    1.348    67 H    0.972
                            38 C    0.119
    38   6 C    3.960 --    40 C    1.457    36 C    1.332    68 H    0.972
                            37 C    0.119
    39   6 C    3.990 --    37 C    1.470    40 C    1.409    69 H    0.971
    40   6 C    3.981 --    38 C    1.457    39 C    1.409    70 H    0.975
    41   1 H    0.969 --     1 N    0.930
    42   1 H    0.993 --     2 C    0.944
    43   1 H    0.998 --     2 C    0.965
    44   1 H    0.970 --     5 N    0.934
    45   1 H    0.996 --     6 C    0.960
    46   1 H    0.996 --     8 C    0.957
    47   1 H    0.962 --    10 N    0.930
    48   1 H    0.997 --    11 C    0.970
    49   1 H    0.996 --    11 C    0.963
    50   1 H    0.999 --    13 C    0.971
    51   1 H    0.999 --    13 C    0.970
    52   1 H    0.994 --    14 C    0.964
    53   1 H    0.992 --    14 C    0.958
    54   1 H    0.971 --    17 N    0.927
    55   1 H    0.998 --    21 C    0.956
    56   1 H    0.969 --    23 N    0.919
    57   1 H    0.998 --    24 C    0.981
    58   1 H    0.996 --    24 C    0.980
    59   1 H    0.995 --    24 C    0.985
    60   1 H    0.995 --    26 C    0.957
    61   1 H    0.996 --    26 C    0.952
    62   1 H    0.943 --    28 N    0.883
    63   1 H    0.997 --    31 C    0.968
    64   1 H    0.994 --    31 C    0.963
    65   1 H    0.998 --    33 C    0.969
    66   1 H    0.977 --    35 N    0.953
    67   1 H    0.999 --    37 C    0.972
    68   1 H    0.999 --    38 C    0.972
    69   1 H    0.999 --    39 C    0.971
    70   1 H    0.999 --    40 C    0.975
 ---------------------------------------------------------------------------

Topologies differ in total number of bonds
Writing topology from bond orders to xtbtopo.mol

molecular dipole:
                 x           y           z       tot (Debye)
 q only:        5.368       9.895       9.184
   full:        5.351       9.869       9.830      37.928
molecular quadrupole (traceless):
                xx          xy          yy          xz          yz          zz
 q only:       53.480    -100.825     -27.488     -83.698    -136.889     -25.992
  q+dip:       42.367    -104.005     -16.943     -86.656    -142.020     -25.424
   full:       44.701    -105.138     -18.625     -87.630    -140.563     -26.076


           -------------------------------------------------
          | TOTAL ENERGY             -122.020066640184 Eh   |
          | GRADIENT NORM               0.355069283240 Eh/α |
          | HOMO-LUMO GAP               0.184805400197 eV   |
           -------------------------------------------------

------------------------------------------------------------------------
 * finished run on 2026/05/23 at 08:13:03.092     
------------------------------------------------------------------------
 total:
 * wall-time:     0 d,  0 h,  0 min, 14.868 sec
 *  cpu-time:     0 d,  0 h,  0 min, 51.004 sec
 * ratio c/w:     3.430 speedup
 SCF:
 * wall-time:     0 d,  0 h,  0 min, 14.446 sec
 *  cpu-time:     0 d,  0 h,  0 min, 49.340 sec
 * ratio c/w:     3.416 speedup

normal termination of xtb
