      -----------------------------------------------------------      
     |                   =====================                   |     
     |                           x T B                           |     
     |                   =====================                   |     
     |                         S. Grimme                         |     
     |          Mulliken Center for Theoretical Chemistry        |     
     |                    University of Bonn                     |     
      -----------------------------------------------------------      

   * xtb version 6.7.1 (edcfbbe) compiled by 'albert@albert-system' on 2024-07-22

   xtb is free software: you can redistribute it and/or modify it under
   the terms of the GNU Lesser General Public License as published by
   the Free Software Foundation, either version 3 of the License, or
   (at your option) any later version.
   
   xtb is distributed in the hope that it will be useful,
   but WITHOUT ANY WARRANTY; without even the implied warranty of
   MERCHANTABILITY or FITNESS FOR A PARTICULAR PURPOSE.  See the
   GNU Lesser General Public License for more details.
   
   Cite this work as:
   * C. Bannwarth, E. Caldeweyher, S. Ehlert, A. Hansen, P. Pracht,
     J. Seibert, S. Spicher, S. Grimme, WIREs Comput. Mol. Sci., 2020, 11,
     e01493. DOI: 10.1002/wcms.1493
   
   for GFN2-xTB:
   * C. Bannwarth, S. Ehlert and S. Grimme., J. Chem. Theory Comput., 2019,
     15, 1652-1671. DOI: 10.1021/acs.jctc.8b01176
   for GFN1-xTB:
   * S. Grimme, C. Bannwarth, P. Shushkov, J. Chem. Theory Comput., 2017,
     13, 1989-2009. DOI: 10.1021/acs.jctc.7b00118
   for GFN0-xTB:
   * P. Pracht, E. Caldeweyher, S. Ehlert, S. Grimme, ChemRxiv, 2019, preprint.
     DOI: 10.26434/chemrxiv.8326202.v1
   for GFN-FF:
   * S. Spicher and S. Grimme, Angew. Chem. Int. Ed., 2020, 59, 15665-15673.
     DOI: 10.1002/anie.202004239
   
   for ALPB and GBSA implicit solvation:
   * S. Ehlert, M. Stahn, S. Spicher, S. Grimme, J. Chem. Theory Comput.,
     2021, 17, 4250-4261. DOI: 10.1021/acs.jctc.1c00471
   
   for ddCOSMO and CPCM-X implicit solvation:
   * M. Stahn, S. Ehlert, S. Grimme, J. Phys. Chem. A,
     2023, XX, XXXX-XXXX. DOI: 10.1021/acs.jpca.3c04382
   
   for DFT-D4:
   * E. Caldeweyher, C. Bannwarth and S. Grimme, J. Chem. Phys., 2017,
     147, 034112. DOI: 10.1063/1.4993215
   * E. Caldeweyher, S. Ehlert, A. Hansen, H. Neugebauer, S. Spicher,
     C. Bannwarth and S. Grimme, J. Chem. Phys., 2019, 150, 154122.
     DOI: 10.1063/1.5090222
   * E. Caldeweyher, J.-M. Mewes, S. Ehlert and S. Grimme, Phys. Chem. Chem. Phys.
     2020, 22, 8499-8512. DOI: 10.1039/D0CP00502A
   
   for sTDA-xTB:
   * S. Grimme and C. Bannwarth, J. Chem. Phys., 2016, 145, 054103.
     DOI: 10.1063/1.4959605
   
   in the mass-spec context:
   * V. Asgeirsson, C. Bauer and S. Grimme, Chem. Sci., 2017, 8, 4879.
     DOI: 10.1039/c7sc00601b
   * J. Koopman and S. Grimme, ACS Omega 2019, 4, 12, 15120-15133.
     DOI: 10.1021/acsomega.9b02011
   
   for metadynamics refer to:
   * S. Grimme, J. Chem. Theory Comput., 2019, 155, 2847-2862
     DOI: 10.1021/acs.jctc.9b00143
   
   for SPH calculations refer to:
   * S. Spicher and S. Grimme, J. Chem. Theory Comput., 2021, 17, 1701-1714
     DOI: 10.1021/acs.jctc.0c01306
   
   for ONIOM refer to:
   * C. Plett, A. Katbashev, S. Ehlert, S. Grimme, M. Bursch,
     Phys. Chem. Chem. Phys., 2023, 25, 17860-17868. DOI: 10.1039/D3CP02178E
   
   for DIPRO refer to:
   * J. Kohn, N. Gildemeister, S. Grimme, D. Fazzi, A. Hansen,
     J. Chem. Phys., 2023, just accepted.
   
   for PTB refer to:
   * S. Grimme, M. Mueller, A. Hansen, J. Chem. Phys., 2023, 158, 124111.
     DOI: 10.1063/5.0137838
   
   with help from (in alphabetical order)
   P. Atkinson, C. Bannwarth, F. Bohle, G. Brandenburg, E. Caldeweyher
   M. Checinski, S. Dohm, S. Ehlert, S. Ehrlich, I. Gerasimov, C. Hölzer
   A. Katbashev, J. Kohn, J. Koopman, C. Lavigne, S. Lehtola, F. März, M. Müller,
   F. Musil, H. Neugebauer, J. Pisarek, C. Plett, P. Pracht, F. Pultar,
   J. Seibert, P. Shushkov, S. Spicher, M. Stahn, M. Steiner, T. Strunk,
   J. Stückrath, T. Rose, and J. Unsleber
   
 * started run on 2026/05/23 at 08:13:13.921     
   ID    Z sym.   atoms
    1    7 N      1, 5, 10, 17, 23, 28, 35
    2    6 C      2, 3, 6-8, 11-14, 16, 20, 21, 24-26, 29, 31-34, 36-40
    3    8 O      4, 9, 15, 18, 19, 22, 27, 30
    4    1 H      41-70

           -------------------------------------------------
          |                Calculation Setup                |
           -------------------------------------------------

          program call               : /home/xchen/software/xtb-6.7.1/xtb-dist/bin/xtb /home/xchen/Test/benchmark/md_sampled/01_6_0109_n1/snap_0025.xyz --charge -1 --gfn 2 --norestart
          coordinate file            : /home/xchen/Test/benchmark/md_sampled/01_6_0109_n1/snap_0025.xyz
          omp threads                :                    48


           -------------------------------------------------
          |                 G F N 2 - x T B                 |
           -------------------------------------------------

        Reference                      10.1021/acs.jctc.8b01176
      * Hamiltonian:
        H0-scaling (s, p, d)           1.850000    2.230000    2.230000
        zeta-weighting                 0.500000
      * Dispersion:
        s8                             2.700000
        a1                             0.520000
        a2                             5.000000
        s9                             5.000000
      * Repulsion:
        kExp                           1.500000    1.000000
        rExp                           1.000000
      * Coulomb:
        alpha                          2.000000
        third order                    shell-resolved
        anisotropic                    true
        a3                             3.000000
        a5                             4.000000
        cn-shift                       1.200000
        cn-exp                         4.000000
        max-rad                        5.000000


          ...................................................
          :                      SETUP                      :
          :.................................................:
          :  # basis functions                 190          :
          :  # atomic orbitals                 190          :
          :  # shells                          110          :
          :  # electrons                       214          :
          :  max. iterations                   250          :
          :  Hamiltonian                  GFN2-xTB          :
          :  restarted?                      false          :
          :  GBSA solvation                  false          :
          :  PC potential                    false          :
          :  electronic temp.          300.0000000     K    :
          :  accuracy                    1.0000000          :
          :  -> integral cutoff          0.2500000E+02      :
          :  -> integral neglect         0.1000000E-07      :
          :  -> SCF convergence          0.1000000E-05 Eh   :
          :  -> wf. convergence          0.1000000E-03 e    :
          :  Broyden damping             0.4000000          :
          :  net charge                         -1          :
          :  unpaired electrons                  0          :
          ...................................................

 iter      E             dE          RMSdq      gap      omega  full diag
   1   -123.1551551 -0.123155E+03  0.447E+00    3.32       0.0  T
   2   -123.4837723 -0.328617E+00  0.241E+00    2.15       1.0  T
   3   -123.4997551 -0.159829E-01  0.134E+00    0.67       1.0  T
   4   -119.9565764  0.354318E+01  0.437E+00    0.18       1.0  T
   5   -123.5012104 -0.354463E+01  0.431E-01    0.46       1.0  T
   6   -123.3829245  0.118286E+00  0.859E-01    0.03       1.0  T
   7   -123.5121468 -0.129222E+00  0.157E-01    0.22       1.0  T
   8   -123.5128864 -0.739599E-03  0.885E-02    0.27       1.0  T
   9   -123.5126620  0.224419E-03  0.740E-02    0.33       1.0  T
  10   -123.5127067 -0.447197E-04  0.682E-02    0.33       1.0  T
  11   -123.5127668 -0.600910E-04  0.641E-02    0.31       1.0  T
  12   -123.5128522 -0.853820E-04  0.582E-02    0.29       1.0  T
  13   -123.5129780 -0.125844E-03  0.499E-02    0.26       1.0  T
  14   -123.5131263 -0.148265E-03  0.396E-02    0.24       1.0  T
  15   -123.5133062 -0.179887E-03  0.236E-02    0.21       1.0  T
  16   -123.5133418 -0.355588E-04  0.191E-02    0.21       1.0  T
  17   -123.5133494 -0.759556E-05  0.174E-02    0.21       1.0  T
  18   -123.5133632 -0.138356E-04  0.148E-02    0.20       1.0  T
  19   -123.5133752 -0.120139E-04  0.116E-02    0.20       1.0  T
  20   -123.5133955 -0.202867E-04  0.339E-03    0.19       3.5  T
  21   -123.5133959 -0.390583E-06  0.268E-03    0.19       4.5  T
  22   -123.5133967 -0.784965E-06  0.183E-03    0.19       6.5  T
  23   -123.5133969 -0.274720E-06  0.856E-04    0.19      14.0  T
  24   -123.5133971 -0.109841E-06  0.365E-04    0.19      32.7  T

   *** convergence criteria satisfied after 24 iterations ***

         #    Occupation            Energy/Eh            Energy/eV
      -------------------------------------------------------------
         1        2.0000           -0.6628362             -18.0367
       ...           ...                  ...                  ...
       101        2.0000           -0.3185980              -8.6695
       102        2.0000           -0.3087615              -8.4018
       103        2.0000           -0.2946583              -8.0181
       104        2.0000           -0.2875530              -7.8247
       105        2.0000           -0.2081773              -5.6648
       106        2.0000           -0.1974639              -5.3733
       107        1.9509           -0.1885595              -5.1310 (HOMO)
       108        0.0474           -0.1815302              -4.9397 (LUMO)
       109        0.0017           -0.1783447              -4.8530
       110                         -0.1614070              -4.3921
       111                         -0.1563102              -4.2534
       112                         -0.1509405              -4.1073
       ...                                ...                  ...
       190                          0.8993630              24.4729
      -------------------------------------------------------------
                  HL-Gap            0.0070293 Eh            0.1913 eV
             Fermi-level           -0.1850619 Eh           -5.0358 eV

 SCC (total)                   0 d,  0 h,  0 min, 24.539 sec
 SCC setup                      ...        0 min,  0.029 sec (  0.119%)
 Dispersion                     ...        0 min,  0.049 sec (  0.201%)
 classical contributions        ...        0 min,  0.006 sec (  0.025%)
 integral evaluation            ...        0 min,  0.359 sec (  1.464%)
 iterations                     ...        0 min, 23.568 sec ( 96.043%)
 molecular gradient             ...        0 min,  0.515 sec (  2.097%)
 printout                       ...        0 min,  0.012 sec (  0.049%)

         :::::::::::::::::::::::::::::::::::::::::::::::::::::
         ::                     SUMMARY                     ::
         :::::::::::::::::::::::::::::::::::::::::::::::::::::
         :: total energy            -122.032524401534 Eh    ::
         :: gradient norm              0.342456117477 Eh/a0 ::
         :: HOMO-LUMO gap              0.191276970198 eV    ::
         ::.................................................::
         :: SCC energy              -123.511999604241 Eh    ::
         :: -> isotropic ES            0.400791857923 Eh    ::
         :: -> anisotropic ES          0.017881594781 Eh    ::
         :: -> anisotropic XC          0.029854531004 Eh    ::
         :: -> dispersion             -0.080356172835 Eh    ::
         :: repulsion energy           1.479475202708 Eh    ::
         :: add. restraining           0.000000000000 Eh    ::
         :: total charge              -1.000000000069 e     ::
         :::::::::::::::::::::::::::::::::::::::::::::::::::::

           -------------------------------------------------
          |                Property Printout                |
           -------------------------------------------------

    * Orbital Energies and Occupations

         #    Occupation            Energy/Eh            Energy/eV
      -------------------------------------------------------------
         1        2.0000           -0.6628362             -18.0367
       ...           ...                  ...                  ...
        95        2.0000           -0.3318118              -9.0291
        96        2.0000           -0.3307749              -9.0008
        97        2.0000           -0.3286691              -8.9435
        98        2.0000           -0.3244238              -8.8280
        99        2.0000           -0.3198216              -8.7028
       100        2.0000           -0.3195699              -8.6959
       101        2.0000           -0.3185980              -8.6695
       102        2.0000           -0.3087615              -8.4018
       103        2.0000           -0.2946583              -8.0181
       104        2.0000           -0.2875530              -7.8247
       105        2.0000           -0.2081773              -5.6648
       106        2.0000           -0.1974639              -5.3733
       107        1.9509           -0.1885595              -5.1310 (HOMO)
       108        0.0474           -0.1815302              -4.9397 (LUMO)
       109        0.0017           -0.1783447              -4.8530
       110                         -0.1614070              -4.3921
       111                         -0.1563102              -4.2534
       112                         -0.1509405              -4.1073
       113                         -0.1437467              -3.9115
       114                         -0.1380541              -3.7566
       115                         -0.1264597              -3.4411
       116                         -0.1168183              -3.1788
       117                         -0.0282749              -0.7694
       118                         -0.0259464              -0.7060
       ...                                ...                  ...
       190                          0.8993630              24.4729
      -------------------------------------------------------------
                  HL-Gap            0.0070293 Eh            0.1913 eV
             Fermi-level           -0.1850619 Eh           -5.0358 eV

     #   Z          covCN         q      C6AA      α(0)
     1   7 N        2.687    -0.198    25.291     7.469
     2   6 C        3.757    -0.011    20.832     6.508
     3   6 C        2.759     0.276    22.325     7.737
     4   8 O        0.861    -0.439    22.474     6.356
     5   7 N        2.688    -0.169    24.648     7.373
     6   6 C        3.805     0.012    20.365     6.424
     7   6 C        2.774     0.291    22.070     7.694
     8   6 C        3.785     0.017    20.297     6.417
     9   8 O        0.865    -0.384    21.369     6.198
    10   7 N        2.699    -0.196    25.264     7.465
    11   6 C        3.785    -0.065    21.770     6.646
    12   6 C        2.738     0.281    22.243     7.722
    13   6 C        3.775    -0.078    22.014     6.685
    14   6 C        3.729    -0.041    21.404     6.605
    15   8 O        0.858    -0.390    21.489     6.215
    16   6 C        2.686     0.339    21.242     7.543
    17   7 N        2.684    -0.145    24.136     7.297
    18   8 O        0.854    -0.607    26.300     6.876
    19   8 O        0.859    -0.573    25.457     6.765
    20   6 C        2.738     0.270    22.434     7.755
    21   6 C        3.752     0.017    20.348     6.433
    22   8 O        0.860    -0.434    22.374     6.342
    23   7 N        2.682    -0.218    25.747     7.536
    24   6 C        3.768    -0.115    22.739     6.796
    25   6 C        2.739     0.298    21.949     7.671
    26   6 C        3.746    -0.017    20.950     6.529
    27   8 O        0.862    -0.384    21.360     6.197
    28   7 N        2.682    -0.176    24.818     7.399
    29   6 C        2.752     0.271    22.425     7.754
    30   8 O        0.856    -0.413    21.937     6.280
    31   6 C        3.803    -0.067    21.790     6.646
    32   6 C        3.040    -0.031    28.728     8.791
    33   6 C        3.029    -0.002    28.044     8.686
    34   6 C        3.081    -0.018    28.355     8.730
    35   7 N        2.736    -0.132    23.851     7.253
    36   6 C        3.116     0.045    26.836     8.485
    37   6 C        2.928    -0.039    28.978     8.828
    38   6 C        2.917    -0.049    29.225     8.865
    39   6 C        2.924    -0.050    29.240     8.868
    40   6 C        2.924    -0.031    28.773     8.797
    41   1 H        0.860     0.163     1.315     1.797
    42   1 H        0.923     0.094     1.842     2.123
    43   1 H        0.926     0.049     2.336     2.390
    44   1 H        0.861     0.178     1.224     1.733
    45   1 H        0.928     0.074     2.045     2.236
    46   1 H        0.924     0.047     2.363     2.404
    47   1 H        0.860     0.194     1.135     1.669
    48   1 H        0.924     0.039     2.462     2.454
    49   1 H        0.926     0.079     1.987     2.204
    50   1 H        0.924     0.027     2.627     2.535
    51   1 H        0.916     0.012     2.853     2.642
    52   1 H        0.918     0.060     2.195     2.317
    53   1 H        0.926     0.080     1.983     2.202
    54   1 H        0.857     0.176     1.240     1.745
    55   1 H        0.924     0.043     2.414     2.430
    56   1 H        0.861     0.173     1.257     1.756
    57   1 H        0.924     0.035     2.511     2.478
    58   1 H        0.928     0.063     2.164     2.300
    59   1 H        0.929     0.075     2.026     2.226
    60   1 H        0.918     0.056     2.242     2.342
    61   1 H        0.924     0.050     2.321     2.382
    62   1 H        0.861     0.214     1.038     1.596
    63   1 H        0.925     0.057     2.240     2.340
    64   1 H        0.924     0.062     2.181     2.309
    65   1 H        0.924     0.030     2.581     2.512
    66   1 H        0.859     0.154     1.373     1.836
    67   1 H        0.926     0.024     2.668     2.554
    68   1 H        0.920     0.009     2.908     2.667
    69   1 H        0.923     0.018     2.766     2.601
    70   1 H        0.925     0.020     2.731     2.584

 Mol. C6AA /au·bohr⁶  :      56291.224467
 Mol. C8AA /au·bohr⁸  :    1292782.794129
 Mol. α(0) /au        :        359.998352


Wiberg/Mayer (AO) data.
largest (>0.10) Wiberg bond orders for each atom

 ---------------------------------------------------------------------------
     #   Z sym  total        # sym  WBO       # sym  WBO       # sym  WBO
 ---------------------------------------------------------------------------
     1   7 N    3.379 --     7 C    1.194     2 C    0.980    41 H    0.948
                             9 O    0.185
     2   6 C    3.965 --     1 N    0.980    42 H    0.961     3 C    0.960
                            43 H    0.960
     3   6 C    3.954 --     4 O    1.671     5 N    1.259     2 C    0.960
     4   8 O    1.982 --     3 C    1.671     5 N    0.185
     5   7 N    3.442 --     3 C    1.259     6 C    0.983    44 H    0.937
                             4 O    0.185
     6   6 C    3.956 --     5 N    0.983    31 C    0.968    45 H    0.963
                            29 C    0.893
     7   6 C    3.945 --     9 O    1.754     1 N    1.194     8 C    0.934
     8   6 C    3.954 --    11 C    0.974    46 H    0.963    10 N    0.951
                             7 C    0.934
     9   8 O    2.074 --     7 C    1.754     1 N    0.185
    10   7 N    3.433 --    12 C    1.261     8 C    0.951    47 H    0.926
                            15 O    0.210
    11   6 C    3.975 --    48 H    0.980     8 C    0.974    13 C    0.972
                            49 H    0.972
    12   6 C    3.952 --    15 O    1.741    10 N    1.261    14 C    0.897
    13   6 C    3.960 --    51 H    0.982    50 H    0.974    11 C    0.972
                            16 C    0.936
    14   6 C    3.942 --    53 H    0.967    17 N    0.967    52 H    0.963
                            12 C    0.897
    15   8 O    2.080 --    12 C    1.741    10 N    0.210
    16   6 C    3.946 --    19 O    1.537    18 O    1.461    13 C    0.936
    17   7 N    3.478 --    20 C    1.324    14 C    0.967    54 H    0.934
                            22 O    0.199
    18   8 O    1.760 --    16 C    1.461    19 O    0.237
    19   8 O    1.837 --    16 C    1.537    18 O    0.237
    20   6 C    3.947 --    22 O    1.681    17 N    1.324    21 C    0.874
    21   6 C    3.961 --    24 C    1.020    55 H    0.968    23 N    0.956
                            20 C    0.874
    22   8 O    2.016 --    20 C    1.681    17 N    0.199
    23   7 N    3.383 --    25 C    1.208    21 C    0.956    56 H    0.941
                            27 O    0.201
    24   6 C    3.990 --    21 C    1.020    57 H    0.984    58 H    0.978
                            59 H    0.976
    25   6 C    3.949 --    27 O    1.770    23 N    1.208    26 C    0.915
    26   6 C    3.971 --    28 N    1.009    61 H    0.963    60 H    0.959
                            25 C    0.915
    27   8 O    2.093 --    25 C    1.770    23 N    0.201
    28   7 N    3.411 --    29 C    1.234    26 C    1.009    62 H    0.920
                            30 O    0.188
    29   6 C    3.943 --    30 O    1.731    28 N    1.234     6 C    0.893
    30   8 O    2.044 --    29 C    1.731    28 N    0.188
    31   6 C    3.988 --    32 C    1.016     6 C    0.968    63 H    0.966
                            64 H    0.964
    32   6 C    3.970 --    33 C    1.651    34 C    1.134    31 C    1.016
    33   6 C    3.937 --    32 C    1.651    35 N    1.151    65 H    0.966
    34   6 C    3.978 --    37 C    1.358    36 C    1.290    32 C    1.134
    35   7 N    3.471 --    33 C    1.151    36 C    1.149    66 H    0.944
    36   6 C    3.957 --    38 C    1.316    34 C    1.290    35 N    1.149
    37   6 C    3.965 --    39 C    1.468    34 C    1.358    67 H    0.971
                            38 C    0.101
    38   6 C    3.964 --    40 C    1.513    36 C    1.316    68 H    0.963
                            37 C    0.101
    39   6 C    3.981 --    37 C    1.468    40 C    1.370    69 H    0.974
    40   6 C    3.983 --    38 C    1.513    39 C    1.370    70 H    0.968
    41   1 H    0.973 --     1 N    0.948
    42   1 H    0.991 --     2 C    0.961
    43   1 H    0.997 --     2 C    0.960
    44   1 H    0.967 --     5 N    0.937
    45   1 H    0.994 --     6 C    0.963
    46   1 H    0.998 --     8 C    0.963
    47   1 H    0.962 --    10 N    0.926
    48   1 H    0.998 --    11 C    0.980
    49   1 H    0.993 --    11 C    0.972
    50   1 H    0.999 --    13 C    0.974
    51   1 H    0.999 --    13 C    0.982
    52   1 H    0.996 --    14 C    0.963
    53   1 H    0.994 --    14 C    0.967
    54   1 H    0.969 --    17 N    0.934
    55   1 H    0.998 --    21 C    0.968
    56   1 H    0.970 --    23 N    0.941
    57   1 H    0.998 --    24 C    0.984
    58   1 H    0.995 --    24 C    0.978
    59   1 H    0.994 --    24 C    0.976
    60   1 H    0.997 --    26 C    0.959
    61   1 H    0.997 --    26 C    0.963
    62   1 H    0.954 --    28 N    0.920
    63   1 H    0.996 --    31 C    0.966
    64   1 H    0.996 --    31 C    0.964
    65   1 H    0.998 --    33 C    0.966
    66   1 H    0.976 --    35 N    0.944
    67   1 H    0.999 --    37 C    0.971
    68   1 H    0.999 --    38 C    0.963
    69   1 H    0.999 --    39 C    0.974
    70   1 H    0.999 --    40 C    0.968
 ---------------------------------------------------------------------------

Topologies differ in total number of bonds
Writing topology from bond orders to xtbtopo.mol

molecular dipole:
                 x           y           z       tot (Debye)
 q only:        4.911       9.969       9.476
   full:        4.803      10.121      10.109      38.353
molecular quadrupole (traceless):
                xx          xy          yy          xz          yz          zz
 q only:       60.206     -80.176     -32.056     -76.491    -155.984     -28.150
  q+dip:       50.486     -84.677     -23.309     -78.511    -162.903     -27.177
   full:       53.114     -85.053     -25.123     -79.343    -161.997     -27.991


           -------------------------------------------------
          | TOTAL ENERGY             -122.032524401534 Eh   |
          | GRADIENT NORM               0.342456117477 Eh/α |
          | HOMO-LUMO GAP               0.191276970198 eV   |
           -------------------------------------------------

------------------------------------------------------------------------
 * finished run on 2026/05/23 at 08:13:39.168     
------------------------------------------------------------------------
 total:
 * wall-time:     0 d,  0 h,  0 min, 25.246 sec
 *  cpu-time:     0 d,  0 h,  0 min, 29.885 sec
 * ratio c/w:     1.184 speedup
 SCF:
 * wall-time:     0 d,  0 h,  0 min, 24.539 sec
 *  cpu-time:     0 d,  0 h,  0 min, 29.170 sec
 * ratio c/w:     1.189 speedup

normal termination of xtb
