      -----------------------------------------------------------      
     |                   =====================                   |     
     |                           x T B                           |     
     |                   =====================                   |     
     |                         S. Grimme                         |     
     |          Mulliken Center for Theoretical Chemistry        |     
     |                    University of Bonn                     |     
      -----------------------------------------------------------      

   * xtb version 6.7.1 (edcfbbe) compiled by 'albert@albert-system' on 2024-07-22

   xtb is free software: you can redistribute it and/or modify it under
   the terms of the GNU Lesser General Public License as published by
   the Free Software Foundation, either version 3 of the License, or
   (at your option) any later version.
   
   xtb is distributed in the hope that it will be useful,
   but WITHOUT ANY WARRANTY; without even the implied warranty of
   MERCHANTABILITY or FITNESS FOR A PARTICULAR PURPOSE.  See the
   GNU Lesser General Public License for more details.
   
   Cite this work as:
   * C. Bannwarth, E. Caldeweyher, S. Ehlert, A. Hansen, P. Pracht,
     J. Seibert, S. Spicher, S. Grimme, WIREs Comput. Mol. Sci., 2020, 11,
     e01493. DOI: 10.1002/wcms.1493
   
   for GFN2-xTB:
   * C. Bannwarth, S. Ehlert and S. Grimme., J. Chem. Theory Comput., 2019,
     15, 1652-1671. DOI: 10.1021/acs.jctc.8b01176
   for GFN1-xTB:
   * S. Grimme, C. Bannwarth, P. Shushkov, J. Chem. Theory Comput., 2017,
     13, 1989-2009. DOI: 10.1021/acs.jctc.7b00118
   for GFN0-xTB:
   * P. Pracht, E. Caldeweyher, S. Ehlert, S. Grimme, ChemRxiv, 2019, preprint.
     DOI: 10.26434/chemrxiv.8326202.v1
   for GFN-FF:
   * S. Spicher and S. Grimme, Angew. Chem. Int. Ed., 2020, 59, 15665-15673.
     DOI: 10.1002/anie.202004239
   
   for ALPB and GBSA implicit solvation:
   * S. Ehlert, M. Stahn, S. Spicher, S. Grimme, J. Chem. Theory Comput.,
     2021, 17, 4250-4261. DOI: 10.1021/acs.jctc.1c00471
   
   for ddCOSMO and CPCM-X implicit solvation:
   * M. Stahn, S. Ehlert, S. Grimme, J. Phys. Chem. A,
     2023, XX, XXXX-XXXX. DOI: 10.1021/acs.jpca.3c04382
   
   for DFT-D4:
   * E. Caldeweyher, C. Bannwarth and S. Grimme, J. Chem. Phys., 2017,
     147, 034112. DOI: 10.1063/1.4993215
   * E. Caldeweyher, S. Ehlert, A. Hansen, H. Neugebauer, S. Spicher,
     C. Bannwarth and S. Grimme, J. Chem. Phys., 2019, 150, 154122.
     DOI: 10.1063/1.5090222
   * E. Caldeweyher, J.-M. Mewes, S. Ehlert and S. Grimme, Phys. Chem. Chem. Phys.
     2020, 22, 8499-8512. DOI: 10.1039/D0CP00502A
   
   for sTDA-xTB:
   * S. Grimme and C. Bannwarth, J. Chem. Phys., 2016, 145, 054103.
     DOI: 10.1063/1.4959605
   
   in the mass-spec context:
   * V. Asgeirsson, C. Bauer and S. Grimme, Chem. Sci., 2017, 8, 4879.
     DOI: 10.1039/c7sc00601b
   * J. Koopman and S. Grimme, ACS Omega 2019, 4, 12, 15120-15133.
     DOI: 10.1021/acsomega.9b02011
   
   for metadynamics refer to:
   * S. Grimme, J. Chem. Theory Comput., 2019, 155, 2847-2862
     DOI: 10.1021/acs.jctc.9b00143
   
   for SPH calculations refer to:
   * S. Spicher and S. Grimme, J. Chem. Theory Comput., 2021, 17, 1701-1714
     DOI: 10.1021/acs.jctc.0c01306
   
   for ONIOM refer to:
   * C. Plett, A. Katbashev, S. Ehlert, S. Grimme, M. Bursch,
     Phys. Chem. Chem. Phys., 2023, 25, 17860-17868. DOI: 10.1039/D3CP02178E
   
   for DIPRO refer to:
   * J. Kohn, N. Gildemeister, S. Grimme, D. Fazzi, A. Hansen,
     J. Chem. Phys., 2023, just accepted.
   
   for PTB refer to:
   * S. Grimme, M. Mueller, A. Hansen, J. Chem. Phys., 2023, 158, 124111.
     DOI: 10.1063/5.0137838
   
   with help from (in alphabetical order)
   P. Atkinson, C. Bannwarth, F. Bohle, G. Brandenburg, E. Caldeweyher
   M. Checinski, S. Dohm, S. Ehlert, S. Ehrlich, I. Gerasimov, C. Hölzer
   A. Katbashev, J. Kohn, J. Koopman, C. Lavigne, S. Lehtola, F. März, M. Müller,
   F. Musil, H. Neugebauer, J. Pisarek, C. Plett, P. Pracht, F. Pultar,
   J. Seibert, P. Shushkov, S. Spicher, M. Stahn, M. Steiner, T. Strunk,
   J. Stückrath, T. Rose, and J. Unsleber
   
 * started run on 2026/05/23 at 12:48:50.058     
   ID    Z sym.   atoms
    1    7 N      1, 5, 10, 17, 27, 34, 39, 43, 54, 56, 57
    2    6 C      2, 3, 6-8, 11-14, 16, 18, 21-23, 28-31, 33, 35-38, 40,
                  44-48, 50-53, 55, 58
    3    8 O      4, 9, 15, 19, 20, 24-26, 32, 41, 49
    4   16 S      42
    5    1 H      59-117

           -------------------------------------------------
          |                Calculation Setup                |
           -------------------------------------------------

          program call               : /home/xchen/software/xtb-6.7.1/xtb-dist/bin/xtb /home/xchen/Test/benchmark/md_sampled/04_7_0231_n2/snap_0095.xyz --charge -2 --gfn 2 --norestart
          coordinate file            : /home/xchen/Test/benchmark/md_sampled/04_7_0231_n2/snap_0095.xyz
          omp threads                :                    48


           -------------------------------------------------
          |                 G F N 2 - x T B                 |
           -------------------------------------------------

        Reference                      10.1021/acs.jctc.8b01176
      * Hamiltonian:
        H0-scaling (s, p, d)           1.850000    2.230000    2.230000
        zeta-weighting                 0.500000
      * Dispersion:
        s8                             2.700000
        a1                             0.520000
        a2                             5.000000
        s9                             5.000000
      * Repulsion:
        kExp                           1.500000    1.000000
        rExp                           1.000000
      * Coulomb:
        alpha                          2.000000
        third order                    shell-resolved
        anisotropic                    true
        a3                             3.000000
        a5                             4.000000
        cn-shift                       1.200000
        cn-exp                         4.000000
        max-rad                        5.000000


          ...................................................
          :                      SETUP                      :
          :.................................................:
          :  # basis functions                 297          :
          :  # atomic orbitals                 296          :
          :  # shells                          176          :
          :  # electrons                       328          :
          :  max. iterations                   250          :
          :  Hamiltonian                  GFN2-xTB          :
          :  restarted?                      false          :
          :  GBSA solvation                  false          :
          :  PC potential                    false          :
          :  electronic temp.          300.0000000     K    :
          :  accuracy                    1.0000000          :
          :  -> integral cutoff          0.2500000E+02      :
          :  -> integral neglect         0.1000000E-07      :
          :  -> SCF convergence          0.1000000E-05 Eh   :
          :  -> wf. convergence          0.1000000E-03 e    :
          :  Broyden damping             0.4000000          :
          :  net charge                         -2          :
          :  unpaired electrons                  0          :
          ...................................................

 iter      E             dE          RMSdq      gap      omega  full diag
   1   -186.9908416 -0.186991E+03  0.418E+00    3.86       0.0  T
   2   -187.4737708 -0.482929E+00  0.217E+00    2.53       1.0  T
   3   -187.4994302 -0.256594E-01  0.118E+00    1.37       1.0  T
   4   -187.2300698  0.269360E+00  0.983E-01    0.00       1.0  T
   5   -187.5068590 -0.276789E+00  0.250E-01    1.32       1.0  T
   6   -187.5099353 -0.307629E-02  0.143E-01    1.33       1.0  T
   7   -187.5100775 -0.142186E-03  0.106E-01    1.28       1.0  T
   8   -187.5104816 -0.404063E-03  0.811E-02    1.15       1.0  T
   9   -187.5106722 -0.190671E-03  0.667E-02    1.00       1.0  T
  10   -187.5108313 -0.159069E-03  0.521E-02    0.86       1.0  T
  11   -187.5109738 -0.142480E-03  0.351E-02    0.69       1.0  T
  12   -187.5110799 -0.106143E-03  0.119E-02    0.46       1.0  T
  13   -187.5110964 -0.164761E-04  0.138E-03    0.35       6.7  T
  14   -187.5110964 -0.131031E-07  0.792E-04    0.35      11.7  T
  15   -187.5110965 -0.786636E-07  0.159E-04    0.35      58.0  T

   *** convergence criteria satisfied after 15 iterations ***

         #    Occupation            Energy/Eh            Energy/eV
      -------------------------------------------------------------
         1        2.0000           -0.5907016             -16.0738
       ...           ...                  ...                  ...
       158        2.0000           -0.2159147              -5.8753
       159        2.0000           -0.2047435              -5.5714
       160        2.0000           -0.2023430              -5.5060
       161        2.0000           -0.1825279              -4.9668
       162        2.0000           -0.1531852              -4.1684
       163        2.0000           -0.1363956              -3.7115
       164        1.9978           -0.1276389              -3.4732 (HOMO)
       165        0.0022           -0.1146691              -3.1203 (LUMO)
       166                         -0.1051735              -2.8619
       167                         -0.0988379              -2.6895
       168                         -0.0904965              -2.4625
       169                         -0.0776714              -2.1135
       ...                                ...                  ...
       296                          0.8735633              23.7709
      -------------------------------------------------------------
                  HL-Gap            0.0129698 Eh            0.3529 eV
             Fermi-level           -0.1211540 Eh           -3.2968 eV

 SCC (total)                   0 d,  0 h,  0 min, 23.636 sec
 SCC setup                      ...        0 min,  0.054 sec (  0.230%)
 Dispersion                     ...        0 min,  0.145 sec (  0.613%)
 classical contributions        ...        0 min,  0.011 sec (  0.046%)
 integral evaluation            ...        0 min,  0.517 sec (  2.186%)
 iterations                     ...        0 min, 22.086 sec ( 93.442%)
 molecular gradient             ...        0 min,  0.808 sec (  3.417%)
 printout                       ...        0 min,  0.015 sec (  0.065%)

         :::::::::::::::::::::::::::::::::::::::::::::::::::::
         ::                     SUMMARY                     ::
         :::::::::::::::::::::::::::::::::::::::::::::::::::::
         :: total energy            -185.551988833586 Eh    ::
         :: gradient norm              0.357550757826 Eh/a0 ::
         :: HOMO-LUMO gap              0.352927574138 eV    ::
         ::.................................................::
         :: SCC energy              -187.505525504193 Eh    ::
         :: -> isotropic ES            0.724346321635 Eh    ::
         :: -> anisotropic ES          0.007271081958 Eh    ::
         :: -> anisotropic XC          0.065256908769 Eh    ::
         :: -> dispersion             -0.136741355285 Eh    ::
         :: repulsion energy           1.953536670607 Eh    ::
         :: add. restraining           0.000000000000 Eh    ::
         :: total charge              -2.000000000002 e     ::
         :::::::::::::::::::::::::::::::::::::::::::::::::::::

           -------------------------------------------------
          |                Property Printout                |
           -------------------------------------------------

    * Orbital Energies and Occupations

         #    Occupation            Energy/Eh            Energy/eV
      -------------------------------------------------------------
         1        2.0000           -0.5907016             -16.0738
       ...           ...                  ...                  ...
       152        2.0000           -0.2390908              -6.5060
       153        2.0000           -0.2363433              -6.4312
       154        2.0000           -0.2353221              -6.4034
       155        2.0000           -0.2313496              -6.2953
       156        2.0000           -0.2273019              -6.1852
       157        2.0000           -0.2237694              -6.0891
       158        2.0000           -0.2159147              -5.8753
       159        2.0000           -0.2047435              -5.5714
       160        2.0000           -0.2023430              -5.5060
       161        2.0000           -0.1825279              -4.9668
       162        2.0000           -0.1531852              -4.1684
       163        2.0000           -0.1363956              -3.7115
       164        1.9978           -0.1276389              -3.4732 (HOMO)
       165        0.0022           -0.1146691              -3.1203 (LUMO)
       166                         -0.1051735              -2.8619
       167                         -0.0988379              -2.6895
       168                         -0.0904965              -2.4625
       169                         -0.0776714              -2.1135
       170                         -0.0707566              -1.9254
       171                         -0.0700978              -1.9075
       172                         -0.0572017              -1.5565
       173                         -0.0478562              -1.3022
       174                         -0.0180945              -0.4924
       175                         -0.0119705              -0.3257
       ...                                ...                  ...
       296                          0.8735633              23.7709
      -------------------------------------------------------------
                  HL-Gap            0.0129698 Eh            0.3529 eV
             Fermi-level           -0.1211540 Eh           -3.2968 eV

     #   Z          covCN         q      C6AA      α(0)
     1   7 N        2.669    -0.200    25.349     7.478
     2   6 C        3.784     0.030    20.090     6.385
     3   6 C        2.790     0.273    22.387     7.750
     4   8 O        0.856    -0.439    22.468     6.355
     5   7 N        2.694    -0.163    24.525     7.355
     6   6 C        3.824     0.001    20.542     6.450
     7   6 C        2.727     0.265    22.523     7.769
     8   6 C        3.769     0.020    20.272     6.416
     9   8 O        0.856    -0.424    22.166     6.312
    10   7 N        2.699    -0.161    24.477     7.348
    11   6 C        3.786    -0.044    21.382     6.586
    12   6 C        2.757     0.275    22.350     7.742
    13   6 C        3.806    -0.100    22.412     6.739
    14   6 C        3.802     0.047    19.785     6.333
    15   8 O        0.858    -0.493    23.639     6.519
    16   6 C        2.684     0.362    20.855     7.473
    17   7 N        2.689    -0.269    26.955     7.711
    18   6 C        3.797    -0.097    22.357     6.733
    19   8 O        0.856    -0.606    26.273     6.872
    20   8 O        0.857    -0.612    26.414     6.891
    21   6 C        2.742     0.253    22.741     7.808
    22   6 C        2.677     0.354    20.988     7.497
    23   6 C        3.758     0.011    20.445     6.446
    24   8 O        0.858    -0.525    24.340     6.615
    25   8 O        0.856    -0.525    24.351     6.616
    26   8 O        0.973    -0.544    24.713     6.668
    27   7 N        2.678    -0.217    25.742     7.535
    28   6 C        3.770    -0.060    21.689     6.637
    29   6 C        2.746     0.273    22.378     7.746
    30   6 C        3.790    -0.061    21.685     6.632
    31   6 C        3.794     0.037    19.964     6.363
    32   8 O        0.858    -0.381    21.308     6.189
    33   6 C        3.791    -0.060    21.658     6.628
    34   7 N        2.692    -0.183    24.958     7.420
    35   6 C        3.822    -0.080    22.005     6.676
    36   6 C        3.695     0.014    20.506     6.478
    37   6 C        2.763     0.269    22.459     7.761
    38   6 C        3.796    -0.006    20.693     6.477
    39   7 N        2.622    -0.355    29.151     8.019
    40   6 C        3.796     0.025    20.167     6.395
    41   8 O        0.858    -0.443    22.564     6.369
    42  16 S        1.958    -0.196   149.382    20.571
    43   7 N        2.692    -0.198    25.301     7.470
    44   6 C        3.847    -0.029    21.064     6.528
    45   6 C        3.739    -0.047    21.497     6.616
    46   6 C        2.774     0.258    22.658     7.796
    47   6 C        3.751    -0.119    22.833     6.815
    48   6 C        3.786    -0.070    21.854     6.658
    49   8 O        0.860    -0.463    22.978     6.427
    50   6 C        3.742    -0.104    22.568     6.777
    51   6 C        3.800    -0.052    21.515     6.604
    52   6 C        3.817    -0.076    21.933     6.665
    53   6 C        3.747     0.018    20.344     6.433
    54   7 N        2.693    -0.233    26.095     7.587
    55   6 C        2.741     0.236    23.067     7.864
    56   7 N        1.786    -0.418    31.842     8.358
    57   7 N        2.647    -0.313    28.064     7.868
    58   6 C        3.723    -0.112    22.763     6.813
    59   1 H        0.857     0.187     1.175     1.698
    60   1 H        0.926     0.052     2.296     2.369
    61   1 H        0.861     0.215     1.030     1.590
    62   1 H        0.915     0.125     1.576     1.964
    63   1 H        0.927     0.057     2.231     2.336
    64   1 H        0.856     0.192     1.148     1.679
    65   1 H        0.926     0.051     2.311     2.377
    66   1 H        0.905     0.028     2.626     2.535
    67   1 H        0.927     0.023     2.692     2.566
    68   1 H        0.928     0.026     2.647     2.544
    69   1 H        0.923     0.045     2.377     2.411
    70   1 H        0.968     0.276     0.782     1.382
    71   1 H        0.921     0.041     2.442     2.444
    72   1 H        0.922     0.043     2.408     2.427
    73   1 H        0.922     0.061     2.193     2.316
    74   1 H        0.857     0.181     1.210     1.723
    75   1 H        0.924     0.045     2.377     2.411
    76   1 H        0.917     0.046     2.369     2.407
    77   1 H        0.920     0.050     2.323     2.384
    78   1 H        0.928     0.053     2.277     2.360
    79   1 H        0.916     0.035     2.517     2.482
    80   1 H        0.920     0.047     2.363     2.404
    81   1 H        0.925     0.022     2.708     2.573
    82   1 H        0.861     0.185     1.184     1.705
    83   1 H        0.929     0.073     2.049     2.238
    84   1 H        0.924     0.070     2.090     2.261
    85   1 H        0.916     0.004     2.986     2.703
    86   1 H        0.912     0.021     2.721     2.580
    87   1 H        0.926     0.045     2.389     2.417
    88   1 H        0.928     0.051     2.304     2.373
    89   1 H        0.858     0.176     1.236     1.742
    90   1 H        0.859     0.123     1.601     1.982
    91   1 H        0.923     0.079     1.991     2.206
    92   1 H        0.860     0.170     1.272     1.767
    93   1 H        0.926     0.062     2.175     2.306
    94   1 H        0.927     0.054     2.269     2.355
    95   1 H        0.923     0.052     2.291     2.367
    96   1 H        0.921     0.036     2.497     2.471
    97   1 H        0.928     0.046     2.364     2.404
    98   1 H        0.929     0.055     2.261     2.351
    99   1 H        0.916     0.028     2.616     2.530
   100   1 H        0.921     0.027     2.636     2.539
   101   1 H        0.926     0.050     2.317     2.380
   102   1 H        0.926     0.033     2.538     2.491
   103   1 H        0.921     0.030     2.584     2.514
   104   1 H        0.926     0.044     2.394     2.420
   105   1 H        0.923     0.072     2.069     2.249
   106   1 H        0.914     0.044     2.395     2.421
   107   1 H        0.924     0.050     2.324     2.384
   108   1 H        0.927     0.061     2.188     2.313
   109   1 H        0.924     0.030     2.583     2.514
   110   1 H        0.924     0.016     2.791     2.613
   111   1 H        0.860     0.159     1.343     1.815
   112   1 H        0.856     0.114     1.676     2.028
   113   1 H        0.859     0.166     1.299     1.785
   114   1 H        0.861     0.173     1.255     1.755
   115   1 H        0.923     0.103     1.760     2.075
   116   1 H        0.918     0.021     2.724     2.581
   117   1 H        0.912     0.034     2.526     2.486

 Mol. C6AA /au·bohr⁶  :     136403.673752
 Mol. C8AA /au·bohr⁸  :    3092198.134977
 Mol. α(0) /au        :        551.547539


Wiberg/Mayer (AO) data.
largest (>0.10) Wiberg bond orders for each atom

 ---------------------------------------------------------------------------
     #   Z sym  total        # sym  WBO       # sym  WBO       # sym  WBO
 ---------------------------------------------------------------------------
     1   7 N    3.391 --     7 C    1.256     2 C    0.935    59 H    0.929
                             9 O    0.187
     2   6 C    3.972 --    51 C    1.003    60 H    0.960     3 C    0.953
                             1 N    0.935
     3   6 C    3.948 --     4 O    1.644     5 N    1.268     2 C    0.953
     4   8 O    2.019 --     3 C    1.644     5 N    0.190
     5   7 N    3.454 --     3 C    1.268     6 C    0.989    61 H    0.919
                             4 O    0.190
     6   6 C    3.957 --    46 C    1.012     5 N    0.989    58 C    0.964
                            62 H    0.874
     7   6 C    3.926 --     9 O    1.703     1 N    1.256     8 C    0.877
     8   6 C    3.958 --    10 N    1.005    11 C    0.968    63 H    0.961
                             7 C    0.877
     9   8 O    2.039 --     7 C    1.703     1 N    0.187
    10   7 N    3.482 --    12 C    1.270     8 C    1.005    64 H    0.894
                            15 O    0.189
    11   6 C    3.979 --    13 C    1.016    66 H    0.969     8 C    0.968
                            65 H    0.965
    12   6 C    3.951 --    15 O    1.613    10 N    1.270    14 C    0.977
    13   6 C    3.971 --    11 C    1.016    67 H    0.973    68 H    0.972
                            16 C    0.887
    14   6 C    3.972 --    18 C    0.978    12 C    0.977    17 N    0.967
                            69 H    0.940
    15   8 O    1.925 --    12 C    1.613    10 N    0.189
    16   6 C    3.946 --    19 O    1.519    20 O    1.513    13 C    0.887
    17   7 N    3.365 --    21 C    1.363    14 C    0.967    70 H    0.669
                            24 O    0.193
    18   6 C    3.978 --    14 C    0.978    72 H    0.976    71 H    0.967
                            22 C    0.898
    19   8 O    1.829 --    16 C    1.519    20 O    0.227
    20   8 O    1.814 --    16 C    1.513    19 O    0.227
    21   6 C    3.953 --    24 O    1.575    17 N    1.363    23 C    0.920
    22   6 C    3.939 --    25 O    1.611    26 O    1.404    18 C    0.898
    23   6 C    3.950 --    27 N    0.977    28 C    0.963    73 H    0.957
                            21 C    0.920
    24   8 O    1.924 --    21 C    1.575    17 N    0.193
    25   8 O    1.909 --    22 C    1.611    26 O    0.210
    26   8 O    2.004 --    22 C    1.404    70 H    0.217    25 O    0.210
    27   7 N    3.403 --    29 C    1.207    23 C    0.977    74 H    0.925
                            32 O    0.209
    28   6 C    3.988 --    30 C    0.997    75 H    0.977    76 H    0.970
                            23 C    0.963
    29   6 C    3.947 --    32 O    1.761    27 N    1.207    31 C    0.914
    30   6 C    3.990 --    33 C    1.011    28 C    0.997    78 H    0.977
                            77 H    0.955
    31   6 C    3.962 --    35 C    0.996    34 N    0.983    79 H    0.936
                            29 C    0.914
    32   8 O    2.093 --    29 C    1.761    27 N    0.209
    33   6 C    3.994 --    30 C    1.011    36 C    0.996    81 H    0.979
                            80 H    0.977
    34   7 N    3.425 --    37 C    1.245    31 C    0.983    82 H    0.922
                            41 O    0.183
    35   6 C    3.987 --    31 C    0.996    38 C    0.992    83 H    0.968
                            84 H    0.966
    36   6 C    3.985 --    39 N    1.021    33 C    0.996    86 H    0.976
                            85 H    0.970
    37   6 C    3.945 --    41 O    1.684    34 N    1.245    40 C    0.921
    38   6 C    3.981 --    42 S    1.010    35 C    0.992    88 H    0.973
                            87 H    0.971
    39   7 N    2.983 --    36 C    1.021    90 H    0.973    89 H    0.946
    40   6 C    3.964 --    43 N    1.005    44 C    0.963    91 H    0.944
                            37 C    0.921
    41   8 O    1.989 --    37 C    1.684    34 N    0.183
    42  16 S    2.092 --    38 C    1.010    45 C    1.002
    43   7 N    3.419 --    46 C    1.208    40 C    1.005    92 H    0.925
                            49 O    0.181
    44   6 C    3.984 --    47 C    1.004    48 C    0.990    93 H    0.965
                            40 C    0.963
    45   6 C    3.974 --    42 S    1.002    94 H    0.985    95 H    0.983
                            96 H    0.976
    46   6 C    3.952 --    49 O    1.643    43 N    1.208     6 C    1.012
    47   6 C    3.992 --    44 C    1.004    97 H    0.987    98 H    0.985
                            99 H    0.974
    48   6 C    3.988 --    50 C    1.011    44 C    0.990   100 H    0.980
                           101 H    0.970
    49   8 O    1.965 --    46 C    1.643    43 N    0.181
    50   6 C    3.992 --    48 C    1.011   102 H    0.989   104 H    0.989
                           103 H    0.986
    51   6 C    3.991 --    52 C    1.005     2 C    1.003   105 H    0.973
                           106 H    0.964
    52   6 C    3.987 --    51 C    1.005    53 C    0.990   108 H    0.979
                           107 H    0.965
    53   6 C    3.979 --    54 N    1.020    52 C    0.990   109 H    0.964
                           110 H    0.960
    54   7 N    3.306 --    55 C    1.109    53 C    1.020   111 H    0.933
                            56 N    0.155
    55   6 C    3.963 --    56 N    1.718    54 N    1.109    57 N    1.105
    56   7 N    2.965 --    55 C    1.718   112 H    0.946    54 N    0.155
    57   7 N    3.168 --    55 C    1.105   114 H    0.954   113 H    0.948
    58   6 C    3.983 --   116 H    0.983   117 H    0.979   115 H    0.975
                             6 C    0.964
    59   1 H    0.965 --     1 N    0.929
    60   1 H    0.997 --     2 C    0.960
    61   1 H    0.954 --     5 N    0.919
    62   1 H    0.984 --     6 C    0.874
    63   1 H    0.996 --     8 C    0.961
    64   1 H    0.963 --    10 N    0.894
    65   1 H    0.997 --    11 C    0.965
    66   1 H    0.998 --    11 C    0.969
    67   1 H    0.999 --    13 C    0.973
    68   1 H    0.999 --    13 C    0.972
    69   1 H    0.997 --    14 C    0.940
    70   1 H    0.924 --    17 N    0.669    26 O    0.217
    71   1 H    0.998 --    18 C    0.967
    72   1 H    0.997 --    18 C    0.976
    73   1 H    0.996 --    23 C    0.957
    74   1 H    0.967 --    27 N    0.925
    75   1 H    0.997 --    28 C    0.977
    76   1 H    0.998 --    28 C    0.970
    77   1 H    0.997 --    30 C    0.955
    78   1 H    0.997 --    30 C    0.977
    79   1 H    0.999 --    31 C    0.936
    80   1 H    0.998 --    33 C    0.977
    81   1 H    0.999 --    33 C    0.979
    82   1 H    0.965 --    34 N    0.922
    83   1 H    0.994 --    35 C    0.968
    84   1 H    0.995 --    35 C    0.966
    85   1 H    1.000 --    36 C    0.970
    86   1 H    0.999 --    36 C    0.976
    87   1 H    0.998 --    38 C    0.971
    88   1 H    0.997 --    38 C    0.973
    89   1 H    0.969 --    39 N    0.946
    90   1 H    0.985 --    39 N    0.973
    91   1 H    0.993 --    40 C    0.944
    92   1 H    0.971 --    43 N    0.925
    93   1 H    0.996 --    44 C    0.965
    94   1 H    0.997 --    45 C    0.985
    95   1 H    0.997 --    45 C    0.983
    96   1 H    0.999 --    45 C    0.976
    97   1 H    0.998 --    47 C    0.987
    98   1 H    0.997 --    47 C    0.985
    99   1 H    0.999 --    47 C    0.974
   100   1 H    0.999 --    48 C    0.980
   101   1 H    0.997 --    48 C    0.970
   102   1 H    0.999 --    50 C    0.989
   103   1 H    0.999 --    50 C    0.986
   104   1 H    0.998 --    50 C    0.989
   105   1 H    0.995 --    51 C    0.973
   106   1 H    0.997 --    51 C    0.964
   107   1 H    0.997 --    52 C    0.965
   108   1 H    0.996 --    52 C    0.979
   109   1 H    0.999 --    53 C    0.964
   110   1 H    0.999 --    53 C    0.960
   111   1 H    0.975 --    54 N    0.933
   112   1 H    0.987 --    56 N    0.946
   113   1 H    0.973 --    57 N    0.948
   114   1 H    0.970 --    57 N    0.954
   115   1 H    0.989 --    58 C    0.975
   116   1 H    0.999 --    58 C    0.983
   117   1 H    0.999 --    58 C    0.979
 ---------------------------------------------------------------------------

Topologies differ in total number of bonds
Writing topology from bond orders to xtbtopo.mol

molecular dipole:
                 x           y           z       tot (Debye)
 q only:        2.415      14.317       2.065
   full:        2.910      13.844       1.959      36.300
molecular quadrupole (traceless):
                xx          xy          yy          xz          yz          zz
 q only:       11.652      13.267     -63.423      62.427    -111.847      51.771
  q+dip:       -5.508      21.105     -59.556      62.574    -113.769      65.064
   full:       -6.292      22.330     -57.324      62.150    -114.575      63.616


           -------------------------------------------------
          | TOTAL ENERGY             -185.551988833586 Eh   |
          | GRADIENT NORM               0.357550757826 Eh/α |
          | HOMO-LUMO GAP               0.352927574138 eV   |
           -------------------------------------------------

------------------------------------------------------------------------
 * finished run on 2026/05/23 at 12:49:14.607     
------------------------------------------------------------------------
 total:
 * wall-time:     0 d,  0 h,  0 min, 24.549 sec
 *  cpu-time:     0 d,  0 h,  0 min, 28.411 sec
 * ratio c/w:     1.157 speedup
 SCF:
 * wall-time:     0 d,  0 h,  0 min, 23.638 sec
 *  cpu-time:     0 d,  0 h,  0 min, 27.171 sec
 * ratio c/w:     1.149 speedup

normal termination of xtb
