      -----------------------------------------------------------      
     |                   =====================                   |     
     |                           x T B                           |     
     |                   =====================                   |     
     |                         S. Grimme                         |     
     |          Mulliken Center for Theoretical Chemistry        |     
     |                    University of Bonn                     |     
      -----------------------------------------------------------      

   * xtb version 6.7.1 (edcfbbe) compiled by 'albert@albert-system' on 2024-07-22

   xtb is free software: you can redistribute it and/or modify it under
   the terms of the GNU Lesser General Public License as published by
   the Free Software Foundation, either version 3 of the License, or
   (at your option) any later version.
   
   xtb is distributed in the hope that it will be useful,
   but WITHOUT ANY WARRANTY; without even the implied warranty of
   MERCHANTABILITY or FITNESS FOR A PARTICULAR PURPOSE.  See the
   GNU Lesser General Public License for more details.
   
   Cite this work as:
   * C. Bannwarth, E. Caldeweyher, S. Ehlert, A. Hansen, P. Pracht,
     J. Seibert, S. Spicher, S. Grimme, WIREs Comput. Mol. Sci., 2020, 11,
     e01493. DOI: 10.1002/wcms.1493
   
   for GFN2-xTB:
   * C. Bannwarth, S. Ehlert and S. Grimme., J. Chem. Theory Comput., 2019,
     15, 1652-1671. DOI: 10.1021/acs.jctc.8b01176
   for GFN1-xTB:
   * S. Grimme, C. Bannwarth, P. Shushkov, J. Chem. Theory Comput., 2017,
     13, 1989-2009. DOI: 10.1021/acs.jctc.7b00118
   for GFN0-xTB:
   * P. Pracht, E. Caldeweyher, S. Ehlert, S. Grimme, ChemRxiv, 2019, preprint.
     DOI: 10.26434/chemrxiv.8326202.v1
   for GFN-FF:
   * S. Spicher and S. Grimme, Angew. Chem. Int. Ed., 2020, 59, 15665-15673.
     DOI: 10.1002/anie.202004239
   
   for ALPB and GBSA implicit solvation:
   * S. Ehlert, M. Stahn, S. Spicher, S. Grimme, J. Chem. Theory Comput.,
     2021, 17, 4250-4261. DOI: 10.1021/acs.jctc.1c00471
   
   for ddCOSMO and CPCM-X implicit solvation:
   * M. Stahn, S. Ehlert, S. Grimme, J. Phys. Chem. A,
     2023, XX, XXXX-XXXX. DOI: 10.1021/acs.jpca.3c04382
   
   for DFT-D4:
   * E. Caldeweyher, C. Bannwarth and S. Grimme, J. Chem. Phys., 2017,
     147, 034112. DOI: 10.1063/1.4993215
   * E. Caldeweyher, S. Ehlert, A. Hansen, H. Neugebauer, S. Spicher,
     C. Bannwarth and S. Grimme, J. Chem. Phys., 2019, 150, 154122.
     DOI: 10.1063/1.5090222
   * E. Caldeweyher, J.-M. Mewes, S. Ehlert and S. Grimme, Phys. Chem. Chem. Phys.
     2020, 22, 8499-8512. DOI: 10.1039/D0CP00502A
   
   for sTDA-xTB:
   * S. Grimme and C. Bannwarth, J. Chem. Phys., 2016, 145, 054103.
     DOI: 10.1063/1.4959605
   
   in the mass-spec context:
   * V. Asgeirsson, C. Bauer and S. Grimme, Chem. Sci., 2017, 8, 4879.
     DOI: 10.1039/c7sc00601b
   * J. Koopman and S. Grimme, ACS Omega 2019, 4, 12, 15120-15133.
     DOI: 10.1021/acsomega.9b02011
   
   for metadynamics refer to:
   * S. Grimme, J. Chem. Theory Comput., 2019, 155, 2847-2862
     DOI: 10.1021/acs.jctc.9b00143
   
   for SPH calculations refer to:
   * S. Spicher and S. Grimme, J. Chem. Theory Comput., 2021, 17, 1701-1714
     DOI: 10.1021/acs.jctc.0c01306
   
   for ONIOM refer to:
   * C. Plett, A. Katbashev, S. Ehlert, S. Grimme, M. Bursch,
     Phys. Chem. Chem. Phys., 2023, 25, 17860-17868. DOI: 10.1039/D3CP02178E
   
   for DIPRO refer to:
   * J. Kohn, N. Gildemeister, S. Grimme, D. Fazzi, A. Hansen,
     J. Chem. Phys., 2023, just accepted.
   
   for PTB refer to:
   * S. Grimme, M. Mueller, A. Hansen, J. Chem. Phys., 2023, 158, 124111.
     DOI: 10.1063/5.0137838
   
   with help from (in alphabetical order)
   P. Atkinson, C. Bannwarth, F. Bohle, G. Brandenburg, E. Caldeweyher
   M. Checinski, S. Dohm, S. Ehlert, S. Ehrlich, I. Gerasimov, C. Hölzer
   A. Katbashev, J. Kohn, J. Koopman, C. Lavigne, S. Lehtola, F. März, M. Müller,
   F. Musil, H. Neugebauer, J. Pisarek, C. Plett, P. Pracht, F. Pultar,
   J. Seibert, P. Shushkov, S. Spicher, M. Stahn, M. Steiner, T. Strunk,
   J. Stückrath, T. Rose, and J. Unsleber
   
 * started run on 2026/05/23 at 08:15:46.232     
   ID    Z sym.   atoms
    1    7 N      1, 5, 10, 17, 23, 28, 35
    2    6 C      2, 3, 6-8, 11-14, 16, 20, 21, 24-26, 29, 31-34, 36-40
    3    8 O      4, 9, 15, 18, 19, 22, 27, 30
    4    1 H      41-70

           -------------------------------------------------
          |                Calculation Setup                |
           -------------------------------------------------

          program call               : /home/xchen/software/xtb-6.7.1/xtb-dist/bin/xtb /home/xchen/Test/benchmark/md_sampled/01_6_0109_n1/snap_0095.xyz --charge -1 --gfn 2 --norestart
          coordinate file            : /home/xchen/Test/benchmark/md_sampled/01_6_0109_n1/snap_0095.xyz
          omp threads                :                    48


           -------------------------------------------------
          |                 G F N 2 - x T B                 |
           -------------------------------------------------

        Reference                      10.1021/acs.jctc.8b01176
      * Hamiltonian:
        H0-scaling (s, p, d)           1.850000    2.230000    2.230000
        zeta-weighting                 0.500000
      * Dispersion:
        s8                             2.700000
        a1                             0.520000
        a2                             5.000000
        s9                             5.000000
      * Repulsion:
        kExp                           1.500000    1.000000
        rExp                           1.000000
      * Coulomb:
        alpha                          2.000000
        third order                    shell-resolved
        anisotropic                    true
        a3                             3.000000
        a5                             4.000000
        cn-shift                       1.200000
        cn-exp                         4.000000
        max-rad                        5.000000


          ...................................................
          :                      SETUP                      :
          :.................................................:
          :  # basis functions                 190          :
          :  # atomic orbitals                 190          :
          :  # shells                          110          :
          :  # electrons                       214          :
          :  max. iterations                   250          :
          :  Hamiltonian                  GFN2-xTB          :
          :  restarted?                      false          :
          :  GBSA solvation                  false          :
          :  PC potential                    false          :
          :  electronic temp.          300.0000000     K    :
          :  accuracy                    1.0000000          :
          :  -> integral cutoff          0.2500000E+02      :
          :  -> integral neglect         0.1000000E-07      :
          :  -> SCF convergence          0.1000000E-05 Eh   :
          :  -> wf. convergence          0.1000000E-03 e    :
          :  Broyden damping             0.4000000          :
          :  net charge                         -1          :
          :  unpaired electrons                  0          :
          ...................................................

 iter      E             dE          RMSdq      gap      omega  full diag
   1   -123.0441119 -0.123044E+03  0.451E+00    2.97       0.0  T
   2   -123.4090218 -0.364910E+00  0.248E+00    2.37       1.0  T
   3   -123.4284861 -0.194644E-01  0.144E+00    1.25       1.0  T
   4   -123.4155820  0.129041E-01  0.729E-01    0.33       1.0  T
   5   -123.4492853 -0.337033E-01  0.158E-01    0.43       1.0  T
   6   -123.4499073 -0.621930E-03  0.767E-02    0.54       1.0  T
   7   -123.4500244 -0.117153E-03  0.319E-02    0.57       1.0  T
   8   -123.4500290 -0.459722E-05  0.139E-02    0.58       1.0  T
   9   -123.4500350 -0.596322E-05  0.452E-03    0.57       2.6  T
  10   -123.4500354 -0.391428E-06  0.212E-03    0.57       5.6  T
  11   -123.4500354 -0.831814E-07  0.853E-04    0.57      14.0  T
  12   -123.4500355 -0.128105E-07  0.311E-04    0.57      38.4  T

   *** convergence criteria satisfied after 12 iterations ***

         #    Occupation            Energy/Eh            Energy/eV
      -------------------------------------------------------------
         1        2.0000           -0.6516189             -17.7315
       ...           ...                  ...                  ...
       101        2.0000           -0.3118796              -8.4867
       102        2.0000           -0.3113202              -8.4715
       103        2.0000           -0.3054284              -8.3111
       104        2.0000           -0.3015693              -8.2061
       105        2.0000           -0.2281721              -6.2089
       106        2.0000           -0.2140822              -5.8255
       107        2.0000           -0.2009839              -5.4691 (HOMO)
       108        0.0000           -0.1800202              -4.8986 (LUMO)
       109        0.0000           -0.1767912              -4.8107
       110                         -0.1665578              -4.5323
       111                         -0.1583841              -4.3099
       112                         -0.1569789              -4.2716
       ...                                ...                  ...
       190                          0.8488038              23.0971
      -------------------------------------------------------------
                  HL-Gap            0.0209637 Eh            0.5705 eV
             Fermi-level           -0.1905177 Eh           -5.1842 eV

 SCC (total)                   0 d,  0 h,  0 min, 10.180 sec
 SCC setup                      ...        0 min,  0.048 sec (  0.469%)
 Dispersion                     ...        0 min,  0.108 sec (  1.065%)
 classical contributions        ...        0 min,  0.011 sec (  0.111%)
 integral evaluation            ...        0 min,  0.608 sec (  5.969%)
 iterations                     ...        0 min,  8.937 sec ( 87.791%)
 molecular gradient             ...        0 min,  0.457 sec (  4.489%)
 printout                       ...        0 min,  0.011 sec (  0.106%)

         :::::::::::::::::::::::::::::::::::::::::::::::::::::
         ::                     SUMMARY                     ::
         :::::::::::::::::::::::::::::::::::::::::::::::::::::
         :: total energy            -122.040304266367 Eh    ::
         :: gradient norm              0.334617828286 Eh/a0 ::
         :: HOMO-LUMO gap              0.570452147257 eV    ::
         ::.................................................::
         :: SCC energy              -123.448723521701 Eh    ::
         :: -> isotropic ES            0.402140582438 Eh    ::
         :: -> anisotropic ES          0.014043750537 Eh    ::
         :: -> anisotropic XC          0.033848309288 Eh    ::
         :: -> dispersion             -0.081395970438 Eh    ::
         :: repulsion energy           1.408419255334 Eh    ::
         :: add. restraining           0.000000000000 Eh    ::
         :: total charge              -1.000000000097 e     ::
         :::::::::::::::::::::::::::::::::::::::::::::::::::::

           -------------------------------------------------
          |                Property Printout                |
           -------------------------------------------------

    * Orbital Energies and Occupations

         #    Occupation            Energy/Eh            Energy/eV
      -------------------------------------------------------------
         1        2.0000           -0.6516189             -17.7315
       ...           ...                  ...                  ...
        95        2.0000           -0.3313190              -9.0156
        96        2.0000           -0.3287651              -8.9462
        97        2.0000           -0.3266128              -8.8876
        98        2.0000           -0.3246039              -8.8329
        99        2.0000           -0.3184569              -8.6657
       100        2.0000           -0.3158748              -8.5954
       101        2.0000           -0.3118796              -8.4867
       102        2.0000           -0.3113202              -8.4715
       103        2.0000           -0.3054284              -8.3111
       104        2.0000           -0.3015693              -8.2061
       105        2.0000           -0.2281721              -6.2089
       106        2.0000           -0.2140822              -5.8255
       107        2.0000           -0.2009839              -5.4691 (HOMO)
       108        0.0000           -0.1800202              -4.8986 (LUMO)
       109        0.0000           -0.1767912              -4.8107
       110                         -0.1665578              -4.5323
       111                         -0.1583841              -4.3099
       112                         -0.1569789              -4.2716
       113                         -0.1555928              -4.2339
       114                         -0.1508599              -4.1051
       115                         -0.1437123              -3.9106
       116                         -0.1136410              -3.0923
       117                         -0.0294528              -0.8015
       118                         -0.0072089              -0.1962
       ...                                ...                  ...
       190                          0.8488038              23.0971
      -------------------------------------------------------------
                  HL-Gap            0.0209637 Eh            0.5705 eV
             Fermi-level           -0.1905177 Eh           -5.1842 eV

     #   Z          covCN         q      C6AA      α(0)
     1   7 N        2.682    -0.215    25.693     7.528
     2   6 C        3.812    -0.008    20.720     6.479
     3   6 C        2.749     0.276    22.328     7.737
     4   8 O        0.857    -0.440    22.487     6.358
     5   7 N        2.689    -0.181    24.913     7.413
     6   6 C        3.777     0.019    20.271     6.415
     7   6 C        2.800     0.276    22.333     7.742
     8   6 C        3.770     0.008    20.477     6.449
     9   8 O        0.859    -0.440    22.490     6.358
    10   7 N        2.682    -0.138    23.997     7.275
    11   6 C        3.771    -0.058    21.652     6.631
    12   6 C        2.759     0.230    23.167     7.882
    13   6 C        3.781    -0.100    22.439     6.748
    14   6 C        3.753    -0.015    20.899     6.519
    15   8 O        0.856    -0.471    23.150     6.451
    16   6 C        2.666     0.361    20.877     7.476
    17   7 N        2.693    -0.164    24.557     7.360
    18   8 O        0.856    -0.577    25.571     6.780
    19   8 O        0.856    -0.561    25.184     6.728
    20   6 C        2.760     0.265    22.531     7.773
    21   6 C        3.801     0.016    20.300     6.415
    22   8 O        0.857    -0.420    22.093     6.302
    23   7 N        2.700    -0.168    24.626     7.370
    24   6 C        3.741    -0.120    22.880     6.825
    25   6 C        2.765     0.268    22.474     7.764
    26   6 C        3.757    -0.012    20.847     6.510
    27   8 O        0.856    -0.432    22.334     6.336
    28   7 N        2.682    -0.188    25.068     7.436
    29   6 C        2.763     0.291    22.072     7.694
    30   8 O        0.858    -0.392    21.530     6.221
    31   6 C        3.803    -0.068    21.807     6.648
    32   6 C        3.011    -0.034    28.817     8.806
    33   6 C        2.900     0.004    27.925     8.664
    34   6 C        3.055    -0.003    28.035     8.683
    35   7 N        2.772    -0.112    23.434     7.190
    36   6 C        2.981     0.039    27.128     8.544
    37   6 C        2.921    -0.036    28.891     8.814
    38   6 C        2.903    -0.056    29.379     8.887
    39   6 C        2.907    -0.043    29.065     8.840
    40   6 C        2.924    -0.037    28.921     8.819
    41   1 H        0.862     0.193     1.142     1.674
    42   1 H        0.929     0.087     1.908     2.160
    43   1 H        0.925     0.057     2.240     2.341
    44   1 H        0.859     0.189     1.166     1.691
    45   1 H        0.913     0.052     2.300     2.372
    46   1 H        0.927     0.074     2.044     2.236
    47   1 H        0.861     0.190     1.160     1.687
    48   1 H        0.926     0.047     2.356     2.400
    49   1 H        0.908     0.065     2.146     2.292
    50   1 H        0.921    -0.017     3.379     2.875
    51   1 H        0.928     0.016     2.793     2.613
    52   1 H        0.927     0.080     1.981     2.201
    53   1 H        0.925     0.074     2.040     2.233
    54   1 H        0.858     0.195     1.134     1.668
    55   1 H        0.921     0.068     2.103     2.268
    56   1 H        0.861     0.186     1.181     1.702
    57   1 H        0.915     0.048     2.351     2.398
    58   1 H        0.919     0.044     2.397     2.421
    59   1 H        0.927     0.072     2.065     2.247
    60   1 H        0.918     0.056     2.246     2.344
    61   1 H        0.927     0.065     2.137     2.286
    62   1 H        0.860     0.200     1.104     1.646
    63   1 H        0.926     0.053     2.288     2.365
    64   1 H        0.925     0.070     2.082     2.257
    65   1 H        0.926     0.038     2.472     2.459
    66   1 H        0.860     0.146     1.431     1.874
    67   1 H        0.929     0.037     2.483     2.464
    68   1 H        0.926     0.021     2.717     2.578
    69   1 H        0.909     0.006     2.959     2.691
    70   1 H        0.927     0.024     2.668     2.554

 Mol. C6AA /au·bohr⁶  :      56258.891293
 Mol. C8AA /au·bohr⁸  :    1292732.409416
 Mol. α(0) /au        :        359.869276


Wiberg/Mayer (AO) data.
largest (>0.10) Wiberg bond orders for each atom

 ---------------------------------------------------------------------------
     #   Z sym  total        # sym  WBO       # sym  WBO       # sym  WBO
 ---------------------------------------------------------------------------
     1   7 N    3.328 --     7 C    1.200     2 C    0.975    41 H    0.915
                             9 O    0.150
     2   6 C    3.965 --     1 N    0.975     3 C    0.962    42 H    0.959
                            43 H    0.949
     3   6 C    3.956 --     4 O    1.675     5 N    1.249     2 C    0.962
     4   8 O    1.999 --     3 C    1.675     5 N    0.191
     5   7 N    3.432 --     3 C    1.249     6 C    0.984    44 H    0.930
                             4 O    0.191
     6   6 C    3.960 --     5 N    0.984    31 C    0.965    45 H    0.957
                            29 C    0.908
     7   6 C    3.938 --     9 O    1.709     1 N    1.200     8 C    0.942
     8   6 C    3.952 --    10 N    1.017    46 H    0.953     7 C    0.942
                            11 C    0.898
     9   8 O    1.999 --     7 C    1.709     1 N    0.150
    10   7 N    3.489 --    12 C    1.280     8 C    1.017    47 H    0.929
                            15 O    0.197
    11   6 C    3.972 --    13 C    1.033    48 H    0.978    49 H    0.966
                             8 C    0.898
    12   6 C    3.941 --    15 O    1.610    10 N    1.280    14 C    0.961
    13   6 C    3.960 --    11 C    1.033    51 H    0.982    50 H    0.956
                            16 C    0.813
    14   6 C    3.959 --    17 N    0.986    12 C    0.961    53 H    0.961
                            52 H    0.960
    15   8 O    1.922 --    12 C    1.610    10 N    0.197
    16   6 C    3.941 --    19 O    1.567    18 O    1.538    13 C    0.813
    17   7 N    3.456 --    20 C    1.263    14 C    0.986    54 H    0.929
                            22 O    0.204
    18   8 O    1.853 --    16 C    1.538    19 O    0.234
    19   8 O    1.894 --    16 C    1.567    18 O    0.234
    20   6 C    3.950 --    22 O    1.698    17 N    1.263    21 C    0.904
    21   6 C    3.959 --    23 N    0.992    24 C    0.988    55 H    0.957
                            20 C    0.904
    22   8 O    2.034 --    20 C    1.698    17 N    0.204
    23   7 N    3.451 --    25 C    1.256    21 C    0.992    56 H    0.933
                            27 O    0.189
    24   6 C    3.984 --    21 C    0.988    58 H    0.985    59 H    0.985
                            57 H    0.979
    25   6 C    3.953 --    27 O    1.681    23 N    1.256    26 C    0.943
    26   6 C    3.972 --    28 N    1.009    60 H    0.955    61 H    0.951
                            25 C    0.943
    27   8 O    2.002 --    25 C    1.681    23 N    0.189
    28   7 N    3.394 --    29 C    1.203    26 C    1.009    62 H    0.929
                            30 O    0.188
    29   6 C    3.947 --    30 O    1.756    28 N    1.203     6 C    0.908
    30   8 O    2.076 --    29 C    1.756    28 N    0.188
    31   6 C    3.988 --    32 C    1.003    63 H    0.970     6 C    0.965
                            64 H    0.964
    32   6 C    3.968 --    33 C    1.608    34 C    1.160    31 C    1.003
    33   6 C    3.948 --    32 C    1.608    35 N    1.188    65 H    0.968
    34   6 C    3.986 --    37 C    1.470    36 C    1.179    32 C    1.160
    35   7 N    3.517 --    33 C    1.188    36 C    1.152    66 H    0.951
    36   6 C    3.953 --    38 C    1.405    34 C    1.179    35 N    1.152
    37   6 C    3.995 --    34 C    1.470    39 C    1.373    67 H    0.967
                            38 C    0.105
    38   6 C    3.984 --    40 C    1.414    36 C    1.405    68 H    0.969
                            37 C    0.105
    39   6 C    3.984 --    40 C    1.464    37 C    1.373    69 H    0.969
    40   6 C    3.991 --    39 C    1.464    38 C    1.414    70 H    0.971
    41   1 H    0.963 --     1 N    0.915
    42   1 H    0.992 --     2 C    0.959
    43   1 H    0.996 --     2 C    0.949
    44   1 H    0.964 --     5 N    0.930
    45   1 H    0.997 --     6 C    0.957
    46   1 H    0.994 --     8 C    0.953
    47   1 H    0.964 --    10 N    0.929
    48   1 H    0.998 --    11 C    0.978
    49   1 H    0.996 --    11 C    0.966
    50   1 H    1.000 --    13 C    0.956
    51   1 H    1.000 --    13 C    0.982
    52   1 H    0.992 --    14 C    0.960
    53   1 H    0.994 --    14 C    0.961
    54   1 H    0.962 --    17 N    0.929
    55   1 H    0.995 --    21 C    0.957
    56   1 H    0.965 --    23 N    0.933
    57   1 H    0.997 --    24 C    0.979
    58   1 H    0.998 --    24 C    0.985
    59   1 H    0.995 --    24 C    0.985
    60   1 H    0.997 --    26 C    0.955
    61   1 H    0.996 --    26 C    0.951
    62   1 H    0.960 --    28 N    0.929
    63   1 H    0.997 --    31 C    0.970
    64   1 H    0.994 --    31 C    0.964
    65   1 H    0.997 --    33 C    0.968
    66   1 H    0.978 --    35 N    0.951
    67   1 H    0.998 --    37 C    0.967
    68   1 H    0.999 --    38 C    0.969
    69   1 H    1.000 --    39 C    0.969
    70   1 H    0.999 --    40 C    0.971
 ---------------------------------------------------------------------------

Topologies differ in total number of bonds
Writing topology from bond orders to xtbtopo.mol

molecular dipole:
                 x           y           z       tot (Debye)
 q only:        3.230       9.734       7.684
   full:        3.418       9.839       7.601      32.775
molecular quadrupole (traceless):
                xx          xy          yy          xz          yz          zz
 q only:       61.570     -56.899     -40.352     -38.151    -127.747     -21.217
  q+dip:       53.787     -58.976     -33.550     -34.639    -133.599     -20.238
   full:       56.620     -59.288     -36.010     -36.449    -131.821     -20.610


           -------------------------------------------------
          | TOTAL ENERGY             -122.040304266367 Eh   |
          | GRADIENT NORM               0.334617828286 Eh/α |
          | HOMO-LUMO GAP               0.570452147257 eV   |
           -------------------------------------------------

------------------------------------------------------------------------
 * finished run on 2026/05/23 at 08:15:57.109     
------------------------------------------------------------------------
 total:
 * wall-time:     0 d,  0 h,  0 min, 10.876 sec
 *  cpu-time:     0 d,  0 h,  0 min, 15.459 sec
 * ratio c/w:     1.421 speedup
 SCF:
 * wall-time:     0 d,  0 h,  0 min, 10.181 sec
 *  cpu-time:     0 d,  0 h,  0 min, 14.843 sec
 * ratio c/w:     1.458 speedup

normal termination of xtb
