      -----------------------------------------------------------      
     |                   =====================                   |     
     |                           x T B                           |     
     |                   =====================                   |     
     |                         S. Grimme                         |     
     |          Mulliken Center for Theoretical Chemistry        |     
     |                    University of Bonn                     |     
      -----------------------------------------------------------      

   * xtb version 6.7.1 (26dd68d) compiled by 'froitzheim@fs7' on 2026-05-14

   xtb is free software: you can redistribute it and/or modify it under
   the terms of the GNU Lesser General Public License as published by
   the Free Software Foundation, either version 3 of the License, or
   (at your option) any later version.
   
   xtb is distributed in the hope that it will be useful,
   but WITHOUT ANY WARRANTY; without even the implied warranty of
   MERCHANTABILITY or FITNESS FOR A PARTICULAR PURPOSE.  See the
   GNU Lesser General Public License for more details.
   
   Cite this work as:
   * C. Bannwarth, E. Caldeweyher, S. Ehlert, A. Hansen, P. Pracht,
     J. Seibert, S. Spicher, S. Grimme, WIREs Comput. Mol. Sci., 2020, 11,
     e01493. DOI: 10.1002/wcms.1493
   
   for g-xTB:
   * T. Froitzheim, M. Müller, A. Hansen, S. Grimme, ChemRxiv, 2025, preprint.
     DOI: 10.26434/chemrxiv-2025-bjxv
   for GFN2-xTB:
   * C. Bannwarth, S. Ehlert and S. Grimme., J. Chem. Theory Comput., 2019,
     15, 1652-1671. DOI: 10.1021/acs.jctc.8b01176
   for GFN1-xTB:
   * S. Grimme, C. Bannwarth, P. Shushkov, J. Chem. Theory Comput., 2017,
     13, 1989-2009. DOI: 10.1021/acs.jctc.7b00118
   for GFN0-xTB:
   * P. Pracht, E. Caldeweyher, S. Ehlert, S. Grimme, ChemRxiv, 2019, preprint.
     DOI: 10.26434/chemrxiv.8326202.v1
   for GFN-FF:
   * S. Spicher and S. Grimme, Angew. Chem. Int. Ed., 2020, 59, 15665-15673.
     DOI: 10.1002/anie.202004239
   
   for ALPB and GBSA implicit solvation:
   * S. Ehlert, M. Stahn, S. Spicher, S. Grimme, J. Chem. Theory Comput.,
     2021, 17, 4250-4261. DOI: 10.1021/acs.jctc.1c00471
   
   for ddCOSMO and CPCM-X implicit solvation:
   * M. Stahn, S. Ehlert, S. Grimme, J. Phys. Chem. A,
     2023, XX, XXXX-XXXX. DOI: 10.1021/acs.jpca.3c04382
   
   for DFT-D4:
   * E. Caldeweyher, C. Bannwarth and S. Grimme, J. Chem. Phys., 2017,
     147, 034112. DOI: 10.1063/1.4993215
   * E. Caldeweyher, S. Ehlert, A. Hansen, H. Neugebauer, S. Spicher,
     C. Bannwarth and S. Grimme, J. Chem. Phys., 2019, 150, 154122.
     DOI: 10.1063/1.5090222
   * E. Caldeweyher, J.-M. Mewes, S. Ehlert and S. Grimme, Phys. Chem. Chem. Phys.
     2020, 22, 8499-8512. DOI: 10.1039/D0CP00502A
   
   for sTDA-xTB:
   * S. Grimme and C. Bannwarth, J. Chem. Phys., 2016, 145, 054103.
     DOI: 10.1063/1.4959605
   
   in the mass-spec context:
   * V. Asgeirsson, C. Bauer and S. Grimme, Chem. Sci., 2017, 8, 4879.
     DOI: 10.1039/c7sc00601b
   * J. Koopman and S. Grimme, ACS Omega 2019, 4, 12, 15120-15133.
     DOI: 10.1021/acsomega.9b02011
   
   for metadynamics refer to:
   * S. Grimme, J. Chem. Theory Comput., 2019, 155, 2847-2862
     DOI: 10.1021/acs.jctc.9b00143
   
   for SPH calculations refer to:
   * S. Spicher and S. Grimme, J. Chem. Theory Comput., 2021, 17, 1701-1714
     DOI: 10.1021/acs.jctc.0c01306
   
   for ONIOM refer to:
   * C. Plett, A. Katbashev, S. Ehlert, S. Grimme, M. Bursch,
     Phys. Chem. Chem. Phys., 2023, 25, 17860-17868. DOI: 10.1039/D3CP02178E
   
   for DIPRO refer to:
   * J. Kohn, N. Gildemeister, S. Grimme, D. Fazzi, A. Hansen,
     J. Chem. Phys. 159, 144106 (2023). DOI: 10.1063/5.0167484
   
   for PTB refer to:
   * S. Grimme, M. Mueller, A. Hansen, J. Chem. Phys., 2023, 158, 124111.
     DOI: 10.1063/5.0137838
   
   with help from (in alphabetical order)
   P. Atkinson, C. Bannwarth, F. Bohle, G. Brandenburg, E. Caldeweyher,
   M. Checinski, S. Dohm, S. Ehlert, S. Ehrlich, M. Friede, T. Froitzheim,
   I. Gerasimov, C. Hölzer, A. Katbashev, J. Kohn, J. Koopman, C. Lavigne,
   S. Lehtola, F. März, M. Müller, F. Musil, H. Neugebauer, J. Pisarek,
   C. Plett, P. Pracht, F. Pultar, J. Seibert, P. Shushkov, S. Spicher,
   M. Stahn, M. Steiner, T. Strunk, J. Stückrath, T. Rose, and J. Unsleber
   
 * started run on 2026/05/23 at 08:17:48.994     
   ID    Z sym.   atoms
    1    7 N      1, 5, 10, 17, 23, 28, 35
    2    6 C      2, 3, 6-8, 11-14, 16, 20, 21, 24-26, 29, 31-34, 36-40
    3    8 O      4, 9, 15, 18, 19, 22, 27, 30
    4    1 H      41-70

           -------------------------------------------------
          |                Calculation Setup                |
           -------------------------------------------------

          program call               : /home/xchen/software/xtb-6.7.1-gxtb/bin/xtb /home/xchen/Test/benchmark/md_sampled/01_6_0109_n1/snap_0155.xyz --charge -1 --gxtb --norestart
          coordinate file            : /home/xchen/Test/benchmark/md_sampled/01_6_0109_n1/snap_0155.xyz
          omp threads                :                    48

core increment energy         -1.7791297691186E+03 Eh
dispersion energy              9.7419054737091E-03 Eh
molecular charge              -1.0000000000000E+00 e
number of electrons            2.1399999999800E+02 e
number of unpaired electrons   0.0000000000000E+00 e
wavefunction                   restricted
integral cutoff                2.6907767250513E+01 bohr
energy convergence             1.0000000000000E-06 Eh
density convergence            2.0000000000000E-05 e

------------------------------------------------------------
  cycle        total energy    energy error   density error
------------------------------------------------------------
      1     -1954.952393750  -1.7583237E+02   0.0000000E+00
      2     -1955.296569788  -3.4417604E-01   2.5959367E-02
      3     -1955.513166182  -2.1659639E-01   2.0310611E-02
      4     -1955.962533199  -4.4936702E-01   1.5989917E-02
      5     -1955.970029338  -7.4961386E-03   1.1458552E-03
      6     -1955.970546116  -5.1677820E-04   1.9482802E-04
      7     -1955.970597330  -5.1214688E-05   6.3549900E-05
      8     -1955.970601290  -3.9598723E-06   1.7402933E-05
      9     -1955.970601860  -5.7010257E-07   4.2422442E-06
------------------------------------------------------------

electronic energy             -1.7685057464728E+02 Eh
total energy                  -1.9559706018604E+03 Eh

Post processing:
 | Mayer-Wiberg bond orders
 | Molecular Multipole Moments

 total:                                   9.982 sec
 - increment                              0.000 sec (  0%)
 - repulsion                              0.013 sec (  0%)
 - dispersion                             0.211 sec (  2%)
 - coulomb                                0.125 sec (  1%)
 - exchange                               0.008 sec (  0%)
 - hamiltonian                            0.326 sec (  3%)
 - acp                                    0.184 sec (  1%)
 - spin polarization                      0.000 sec (  0%)
 - post processing                        0.105 sec (  1%)
 - scc                                    7.775 sec ( 77%)
 - coulomb gradient                       0.070 sec (  0%)
 - dispersion gradient                    0.023 sec (  0%)
 - exchange gradient                      0.290 sec (  2%)
 - repulsion gradient                     0.007 sec (  0%)
 - acp gradient                           0.195 sec (  1%)
 - hamiltonian gradient                   0.748 sec (  7%)
 - gradient                               1.333 sec ( 13%)

         :::::::::::::::::::::::::::::::::::::::::::::::::::::
         ::                     SUMMARY                     ::
         :::::::::::::::::::::::::::::::::::::::::::::::::::::
         :: total energy           -1955.970601860411 Eh    ::
         :: gradient norm              0.320065782529 Eh/a0 ::
         :: HOMO-LUMO gap              6.297305462274 eV    ::
         ::.................................................::
         :: add. restraining           0.000000000000 Eh    ::
         :: total charge              -1.000000000000 e     ::
         :::::::::::::::::::::::::::::::::::::::::::::::::::::

           -------------------------------------------------
          |                Property Printout                |
           -------------------------------------------------

    * Orbital Energies and Occupations
------------------------------------------------------------------
      #    Occupation            Energy/Eh            Energy/eV
------------------------------------------------------------------
      1        2.0000           -1.2771236             -34.7523
    ...           ...                  ...                  ...
     95        2.0000           -0.3093687              -8.4184
     96        2.0000           -0.3047675              -8.2931
     97        2.0000           -0.2997500              -8.1566
     98        2.0000           -0.2955909              -8.0434
     99        2.0000           -0.2889963              -7.8640
    100        2.0000           -0.2869580              -7.8085
    101        2.0000           -0.2827018              -7.6927
    102        2.0000           -0.2825871              -7.6896
    103        2.0000           -0.2661534              -7.2424
    104        2.0000           -0.2632160              -7.1625
    105        2.0000           -0.1981872              -5.3929
    106        2.0000           -0.1827101              -4.9718
    107        2.0000           -0.1728682              -4.7040 (HOMO)
    108                          0.0585535               1.5933 (LUMO)
    109                          0.0695741               1.8932
    110                          0.0820443               2.2325
    111                          0.0882299               2.4009
    112                          0.0928089               2.5255
    113                          0.0946464               2.5755
    114                          0.1115126               3.0344
    115                          0.1254994               3.4150
    116                          0.1348829               3.6704
    117                          0.2089912               5.6869
    118                          0.2099989               5.7144
    ...                                ...                  ...
    190                          0.9551807              25.9918
------------------------------------------------------------------
               HL-Gap            0.2314217 Eh            6.2973 eV
------------------------------------------------------------------

Atomic charges and shell populations (in atomic units):
------------------------------------------------------
     #    Z                q          p(s)       p(p)
------------------------------------------------------
     1    7 N      -0.340105      1.371258   3.968847
     2    6 C      -0.061674      1.148622   2.913052
     3    6 C       0.408589      1.097076   2.494335
     4    8 O      -0.518782      1.854130   4.664652
     5    7 N      -0.362739      1.390516   3.972223
     6    6 C      -0.007476      1.116420   2.891056
     7    6 C       0.415378      1.098059   2.486563
     8    6 C      -0.013159      1.115283   2.897876
     9    8 O      -0.570885      1.850162   4.720723
    10    7 N      -0.323859      1.339266   3.984592
    11    6 C      -0.181465      1.154925   3.026540
    12    6 C       0.414759      1.087675   2.497566
    13    6 C      -0.230437      1.199019   3.031419
    14    6 C      -0.073731      1.149712   2.924019
    15    8 O      -0.522346      1.852621   4.669725
    16    6 C       0.527206      1.080851   2.391943
    17    7 N      -0.355989      1.354115   4.001874
    18    8 O      -0.694689      1.860131   4.834559
    19    8 O      -0.636950      1.850167   4.786783
    20    6 C       0.390355      1.095697   2.513949
    21    6 C      -0.015208      1.118283   2.896925
    22    8 O      -0.545070      1.849469   4.695600
    23    7 N      -0.346615      1.385899   3.960716
    24    6 C      -0.246493      1.181968   3.064525
    25    6 C       0.402160      1.124075   2.473765
    26    6 C      -0.066887      1.124793   2.942094
    27    8 O      -0.533220      1.854293   4.678927
    28    7 N      -0.325578      1.351209   3.974368
    29    6 C       0.419018      1.094307   2.486675
    30    8 O      -0.556410      1.863519   4.692891
    31    6 C      -0.123612      1.140839   2.982773
    32    6 C      -0.069569      1.106025   2.963544
    33    6 C      -0.018980      1.144507   2.874473
    34    6 C      -0.055518      1.119016   2.936502
    35    7 N      -0.239036      1.341351   3.897684
    36    6 C       0.052973      1.120282   2.826745
    37    6 C      -0.091257      1.158514   2.932743
    38    6 C      -0.126535      1.161824   2.964711
    39    6 C      -0.127248      1.131221   2.996027
    40    6 C      -0.100853      1.134726   2.966127
    41    1 H       0.288823      0.711177
    42    1 H       0.130353      0.869647
    43    1 H       0.115552      0.884448
    44    1 H       0.258178      0.741822
    45    1 H       0.136894      0.863106
    46    1 H       0.113768      0.886232
    47    1 H       0.270605      0.729395
    48    1 H       0.116930      0.883070
    49    1 H       0.148237      0.851763
    50    1 H       0.042598      0.957402
    51    1 H       0.069323      0.930677
    52    1 H       0.122823      0.877177
    53    1 H       0.138609      0.861391
    54    1 H       0.285975      0.714025
    55    1 H       0.125517      0.874483
    56    1 H       0.248458      0.751542
    57    1 H       0.080599      0.919401
    58    1 H       0.096523      0.903477
    59    1 H       0.110051      0.889949
    60    1 H       0.120148      0.879852
    61    1 H       0.155105      0.844895
    62    1 H       0.298576      0.701424
    63    1 H       0.093231      0.906769
    64    1 H       0.128689      0.871311
    65    1 H       0.114351      0.885649
    66    1 H       0.262158      0.737842
    67    1 H       0.091284      0.908716
    68    1 H       0.101526      0.898474
    69    1 H       0.102272      0.897728
    70    1 H       0.084781      0.915219
------------------------------------------------------


Wiberg/Mayer (AO) data.
largest (>0.10) Wiberg bond orders for each atom

 ---------------------------------------------------------------------------
     #   Z sym  total        # sym  WBO       # sym  WBO       # sym  WBO
 ---------------------------------------------------------------------------
     1   7 N    3.321 --     7 C    1.240     2 C    0.973    41 O    0.863
                             9 C    0.147
     2   6 C    3.916 --     1 N    0.973     3 C    0.946    43 O    0.946
                            42 O    0.940
     3   6 C    3.877 --     4 C    1.682     5 N    1.177     2 C    0.946
     4   8 C    1.956 --     3 C    1.682     5 N    0.153
     5   7 N    3.269 --     3 C    1.177     6 C    0.964    44 O    0.891
                             4 C    0.153
     6   6 C    3.932 --     5 N    0.964    29 C    0.960    31 C    0.948
                            45 O    0.929
     7   6 C    3.862 --     9 C    1.601     1 N    1.240     8 C    0.945
     8   6 C    3.925 --    10 N    0.980     7 C    0.945    11 C    0.936
                            46 O    0.931
     9   8 C    1.928 --     7 C    1.601     1 N    0.147
    10   7 N    3.360 --    12 C    1.251     8 C    0.980    47 O    0.876
                            15 C    0.173
    11   6 C    3.933 --    13 C    1.016    48 O    0.956    49 O    0.942
                             8 C    0.936
    12   6 C    3.889 --    15 C    1.662    10 N    1.251    14 C    0.928
    13   6 C    3.934 --    11 C    1.016    51 O    0.966    50 O    0.951
                            16 C    0.828
    14   6 C    3.903 --    17 N    0.957    52 O    0.953    53 O    0.946
                            12 C    0.928
    15   8 C    1.952 --    12 C    1.662    10 N    0.173
    16   6 C    3.859 --    19 C    1.556    18 C    1.456    13 C    0.828
    17   7 N    3.330 --    20 C    1.261    14 C    0.957    54 O    0.868
                            22 C    0.175
    18   8 C    1.744 --    16 C    1.456    19 C    0.202
    19   8 C    1.851 --    16 C    1.556    18 C    0.202
    20   6 C    3.888 --    22 C    1.648    17 N    1.261    21 C    0.909
    21   6 C    3.938 --    23 N    0.999    24 C    0.985    55 O    0.931
                            20 C    0.909
    22   8 C    1.935 --    20 C    1.648    17 N    0.175
    23   7 N    3.277 --    25 C    1.143    21 C    0.999    56 O    0.900
                            27 C    0.146
    24   6 C    3.947 --    21 C    0.985    58 O    0.977    57 O    0.976
                            59 O    0.972
    25   6 C    3.850 --    27 C    1.667    23 N    1.143    26 C    0.958
    26   6 C    3.933 --    28 N    0.996    25 C    0.958    60 O    0.946
                            61 O    0.921
    27   8 C    1.957 --    25 C    1.667    23 N    0.146
    28   7 N    3.347 --    29 C    1.239    26 C    0.996    62 O    0.853
                            30 C    0.170
    29   6 C    3.884 --    30 C    1.614    28 N    1.239     6 C    0.960
    30   8 C    1.898 --    29 C    1.614    28 N    0.170
    31   6 C    3.955 --    32 C    1.030    64 O    0.952     6 C    0.948
                            63 O    0.946
    32   6 C    3.964 --    33 C    1.568    34 C    1.193    31 C    1.030
    33   6 C    3.912 --    32 C    1.568    35 N    1.198    65 O    0.950
    34   6 C    3.969 --    36 C    1.305    37 C    1.266    32 C    1.193
    35   7 N    3.486 --    33 C    1.198    36 C    1.173    66 O    0.899
    36   6 C    3.922 --    34 C    1.305    38 C    1.221    35 N    1.173
    37   6 C    3.965 --    39 C    1.549    34 C    1.266    67 O    0.951
                            38 C    0.128
    38   6 C    3.956 --    40 C    1.575    36 C    1.221    68 O    0.957
                            37 C    0.128
    39   6 C    3.970 --    37 C    1.549    40 C    1.321    69 O    0.952
    40   6 C    3.973 --    38 C    1.575    39 C    1.321    70 O    0.951
    41   1 O    0.917 --     1 N    0.863
    42   1 O    0.983 --     2 C    0.940
    43   1 O    0.987 --     2 C    0.946
    44   1 O    0.933 --     5 N    0.891
    45   1 O    0.981 --     6 C    0.929
    46   1 O    0.987 --     8 C    0.931
    47   1 O    0.927 --    10 N    0.876
    48   1 O    0.986 --    11 C    0.956
    49   1 O    0.978 --    11 C    0.942
    50   1 O    0.998 --    13 C    0.951
    51   1 O    0.995 --    13 C    0.966
    52   1 O    0.985 --    14 C    0.953
    53   1 O    0.981 --    14 C    0.946
    54   1 O    0.918 --    17 N    0.868
    55   1 O    0.984 --    21 C    0.931
    56   1 O    0.938 --    23 N    0.900
    57   1 O    0.994 --    24 C    0.976
    58   1 O    0.991 --    24 C    0.977
    59   1 O    0.988 --    24 C    0.972
    60   1 O    0.986 --    26 C    0.946
    61   1 O    0.976 --    26 C    0.921
    62   1 O    0.911 --    28 N    0.853
    63   1 O    0.991 --    31 C    0.946
    64   1 O    0.983 --    31 C    0.952
    65   1 O    0.987 --    33 C    0.950
    66   1 O    0.931 --    35 N    0.899
    67   1 O    0.992 --    37 C    0.951
    68   1 O    0.990 --    38 C    0.957
    69   1 O    0.990 --    39 C    0.952
    70   1 O    0.993 --    40 C    0.951
 ---------------------------------------------------------------------------

Topologies differ in total number of bonds
Writing topology from bond orders to xtbtopo.mol

Atomic dipole moments (in atomic units):
---------------------------------------------------------
     #    Z                 x            y            z
---------------------------------------------------------
           total     4.754945     9.561086     7.959957
---------------------------------------------------------
         |total|    13.318588    33.852473 Debye


           -------------------------------------------------
          | TOTAL ENERGY            -1955.970601860411 Eh   |
          | GRADIENT NORM               0.320065782529 Eh/α |
           -------------------------------------------------

------------------------------------------------------------------------
 * finished run on 2026/05/23 at 08:17:59.826     
------------------------------------------------------------------------
 total:
 * wall-time:     0 d,  0 h,  0 min, 10.830 sec
 *  cpu-time:     0 d,  0 h,  0 min, 18.151 sec
 * ratio c/w:     1.676 speedup
 SCF:
 * wall-time:     0 d,  0 h,  0 min, 10.322 sec
 *  cpu-time:     0 d,  0 h,  0 min, 17.713 sec
 * ratio c/w:     1.716 speedup

normal termination of xtb
