      -----------------------------------------------------------      
     |                   =====================                   |     
     |                           x T B                           |     
     |                   =====================                   |     
     |                         S. Grimme                         |     
     |          Mulliken Center for Theoretical Chemistry        |     
     |                    University of Bonn                     |     
      -----------------------------------------------------------      

   * xtb version 6.7.1 (edcfbbe) compiled by 'albert@albert-system' on 2024-07-22

   xtb is free software: you can redistribute it and/or modify it under
   the terms of the GNU Lesser General Public License as published by
   the Free Software Foundation, either version 3 of the License, or
   (at your option) any later version.
   
   xtb is distributed in the hope that it will be useful,
   but WITHOUT ANY WARRANTY; without even the implied warranty of
   MERCHANTABILITY or FITNESS FOR A PARTICULAR PURPOSE.  See the
   GNU Lesser General Public License for more details.
   
   Cite this work as:
   * C. Bannwarth, E. Caldeweyher, S. Ehlert, A. Hansen, P. Pracht,
     J. Seibert, S. Spicher, S. Grimme, WIREs Comput. Mol. Sci., 2020, 11,
     e01493. DOI: 10.1002/wcms.1493
   
   for GFN2-xTB:
   * C. Bannwarth, S. Ehlert and S. Grimme., J. Chem. Theory Comput., 2019,
     15, 1652-1671. DOI: 10.1021/acs.jctc.8b01176
   for GFN1-xTB:
   * S. Grimme, C. Bannwarth, P. Shushkov, J. Chem. Theory Comput., 2017,
     13, 1989-2009. DOI: 10.1021/acs.jctc.7b00118
   for GFN0-xTB:
   * P. Pracht, E. Caldeweyher, S. Ehlert, S. Grimme, ChemRxiv, 2019, preprint.
     DOI: 10.26434/chemrxiv.8326202.v1
   for GFN-FF:
   * S. Spicher and S. Grimme, Angew. Chem. Int. Ed., 2020, 59, 15665-15673.
     DOI: 10.1002/anie.202004239
   
   for ALPB and GBSA implicit solvation:
   * S. Ehlert, M. Stahn, S. Spicher, S. Grimme, J. Chem. Theory Comput.,
     2021, 17, 4250-4261. DOI: 10.1021/acs.jctc.1c00471
   
   for ddCOSMO and CPCM-X implicit solvation:
   * M. Stahn, S. Ehlert, S. Grimme, J. Phys. Chem. A,
     2023, XX, XXXX-XXXX. DOI: 10.1021/acs.jpca.3c04382
   
   for DFT-D4:
   * E. Caldeweyher, C. Bannwarth and S. Grimme, J. Chem. Phys., 2017,
     147, 034112. DOI: 10.1063/1.4993215
   * E. Caldeweyher, S. Ehlert, A. Hansen, H. Neugebauer, S. Spicher,
     C. Bannwarth and S. Grimme, J. Chem. Phys., 2019, 150, 154122.
     DOI: 10.1063/1.5090222
   * E. Caldeweyher, J.-M. Mewes, S. Ehlert and S. Grimme, Phys. Chem. Chem. Phys.
     2020, 22, 8499-8512. DOI: 10.1039/D0CP00502A
   
   for sTDA-xTB:
   * S. Grimme and C. Bannwarth, J. Chem. Phys., 2016, 145, 054103.
     DOI: 10.1063/1.4959605
   
   in the mass-spec context:
   * V. Asgeirsson, C. Bauer and S. Grimme, Chem. Sci., 2017, 8, 4879.
     DOI: 10.1039/c7sc00601b
   * J. Koopman and S. Grimme, ACS Omega 2019, 4, 12, 15120-15133.
     DOI: 10.1021/acsomega.9b02011
   
   for metadynamics refer to:
   * S. Grimme, J. Chem. Theory Comput., 2019, 155, 2847-2862
     DOI: 10.1021/acs.jctc.9b00143
   
   for SPH calculations refer to:
   * S. Spicher and S. Grimme, J. Chem. Theory Comput., 2021, 17, 1701-1714
     DOI: 10.1021/acs.jctc.0c01306
   
   for ONIOM refer to:
   * C. Plett, A. Katbashev, S. Ehlert, S. Grimme, M. Bursch,
     Phys. Chem. Chem. Phys., 2023, 25, 17860-17868. DOI: 10.1039/D3CP02178E
   
   for DIPRO refer to:
   * J. Kohn, N. Gildemeister, S. Grimme, D. Fazzi, A. Hansen,
     J. Chem. Phys., 2023, just accepted.
   
   for PTB refer to:
   * S. Grimme, M. Mueller, A. Hansen, J. Chem. Phys., 2023, 158, 124111.
     DOI: 10.1063/5.0137838
   
   with help from (in alphabetical order)
   P. Atkinson, C. Bannwarth, F. Bohle, G. Brandenburg, E. Caldeweyher
   M. Checinski, S. Dohm, S. Ehlert, S. Ehrlich, I. Gerasimov, C. Hölzer
   A. Katbashev, J. Kohn, J. Koopman, C. Lavigne, S. Lehtola, F. März, M. Müller,
   F. Musil, H. Neugebauer, J. Pisarek, C. Plett, P. Pracht, F. Pultar,
   J. Seibert, P. Shushkov, S. Spicher, M. Stahn, M. Steiner, T. Strunk,
   J. Stückrath, T. Rose, and J. Unsleber
   
 * started run on 2026/05/23 at 12:58:42.804     
   ID    Z sym.   atoms
    1    7 N      1, 5, 10, 17, 18, 26, 33, 36, 42, 49, 54
    2    6 C      2, 3, 6-8, 11-14, 19-22, 24, 25, 27-30, 32, 34, 37, 39, 40,
                  43-45, 47, 50-52, 55
    3    8 O      4, 9, 15, 16, 23, 31, 35, 38, 41, 46, 48, 53, 56
    4    1 H      57-109

           -------------------------------------------------
          |                Calculation Setup                |
           -------------------------------------------------

          program call               : /home/xchen/software/xtb-6.7.1/xtb-dist/bin/xtb /home/xchen/Test/benchmark/md_sampled/08_7_0366_0/snap_0186.xyz --charge 0 --gfn 2 --norestart
          coordinate file            : /home/xchen/Test/benchmark/md_sampled/08_7_0366_0/snap_0186.xyz
          omp threads                :                    48


           -------------------------------------------------
          |                 G F N 2 - x T B                 |
           -------------------------------------------------

        Reference                      10.1021/acs.jctc.8b01176
      * Hamiltonian:
        H0-scaling (s, p, d)           1.850000    2.230000    2.230000
        zeta-weighting                 0.500000
      * Dispersion:
        s8                             2.700000
        a1                             0.520000
        a2                             5.000000
        s9                             5.000000
      * Repulsion:
        kExp                           1.500000    1.000000
        rExp                           1.000000
      * Coulomb:
        alpha                          2.000000
        third order                    shell-resolved
        anisotropic                    true
        a3                             3.000000
        a5                             4.000000
        cn-shift                       1.200000
        cn-exp                         4.000000
        max-rad                        5.000000


          ...................................................
          :                      SETUP                      :
          :.................................................:
          :  # basis functions                 277          :
          :  # atomic orbitals                 277          :
          :  # shells                          165          :
          :  # electrons                       314          :
          :  max. iterations                   250          :
          :  Hamiltonian                  GFN2-xTB          :
          :  restarted?                      false          :
          :  GBSA solvation                  false          :
          :  PC potential                    false          :
          :  electronic temp.          300.0000000     K    :
          :  accuracy                    1.0000000          :
          :  -> integral cutoff          0.2500000E+02      :
          :  -> integral neglect         0.1000000E-07      :
          :  -> SCF convergence          0.1000000E-05 Eh   :
          :  -> wf. convergence          0.1000000E-03 e    :
          :  Broyden damping             0.4000000          :
          :  net charge                          0          :
          :  unpaired electrons                  0          :
          ...................................................

 iter      E             dE          RMSdq      gap      omega  full diag
   1   -181.9670263 -0.181967E+03  0.439E+00    3.61       0.0  T
   2   -182.4778643 -0.510838E+00  0.228E+00    3.46       1.0  T
   3   -182.4973654 -0.195011E-01  0.124E+00    3.47       1.0  T
   4   -182.5012234 -0.385801E-02  0.223E-01    3.31       1.0  T
   5   -182.5049781 -0.375470E-02  0.938E-02    3.37       1.0  T
   6   -182.5050427 -0.646286E-04  0.394E-02    3.37       1.0  T
   7   -182.5050606 -0.179034E-04  0.147E-02    3.37       1.0  T
   8   -182.5050668 -0.622522E-05  0.538E-03    3.37       1.8  T
   9   -182.5050674 -0.586305E-06  0.226E-03    3.37       4.2  T
  10   -182.5050675 -0.608399E-07  0.894E-04    3.37      10.7  T
  11   -182.5050675 -0.225187E-07  0.235E-04    3.37      40.8  T

   *** convergence criteria satisfied after 11 iterations ***

         #    Occupation            Energy/Eh            Energy/eV
      -------------------------------------------------------------
         1        2.0000           -0.7229285             -19.6719
       ...           ...                  ...                  ...
       151        2.0000           -0.3992235             -10.8634
       152        2.0000           -0.3967278             -10.7955
       153        2.0000           -0.3958435             -10.7714
       154        2.0000           -0.3924826             -10.6800
       155        2.0000           -0.3838419             -10.4449
       156        2.0000           -0.3799062             -10.3378
       157        2.0000           -0.3741899             -10.1822 (HOMO)
       158                         -0.2504797              -6.8159 (LUMO)
       159                         -0.2460296              -6.6948
       160                         -0.2403648              -6.5407
       161                         -0.2390941              -6.5061
       162                         -0.2297173              -6.2509
       ...                                ...                  ...
       277                          0.6888184              18.7437
      -------------------------------------------------------------
                  HL-Gap            0.1237102 Eh            3.3663 eV
             Fermi-level           -0.3123348 Eh           -8.4991 eV

 SCC (total)                   0 d,  0 h,  0 min, 10.264 sec
 SCC setup                      ...        0 min,  0.022 sec (  0.214%)
 Dispersion                     ...        0 min,  0.103 sec (  1.003%)
 classical contributions        ...        0 min,  0.005 sec (  0.052%)
 integral evaluation            ...        0 min,  0.267 sec (  2.601%)
 iterations                     ...        0 min,  9.224 sec ( 89.863%)
 molecular gradient             ...        0 min,  0.619 sec (  6.030%)
 printout                       ...        0 min,  0.024 sec (  0.235%)

         :::::::::::::::::::::::::::::::::::::::::::::::::::::
         ::                     SUMMARY                     ::
         :::::::::::::::::::::::::::::::::::::::::::::::::::::
         :: total energy            -180.521899334668 Eh    ::
         :: gradient norm              0.381065837359 Eh/a0 ::
         :: HOMO-LUMO gap              3.366326093271 eV    ::
         ::.................................................::
         :: SCC energy              -182.497511037320 Eh    ::
         :: -> isotropic ES            0.465526995532 Eh    ::
         :: -> anisotropic ES          0.009228941634 Eh    ::
         :: -> anisotropic XC          0.042275936910 Eh    ::
         :: -> dispersion             -0.131305904153 Eh    ::
         :: repulsion energy           1.975611702652 Eh    ::
         :: add. restraining           0.000000000000 Eh    ::
         :: total charge               0.000000000000 e     ::
         :::::::::::::::::::::::::::::::::::::::::::::::::::::

           -------------------------------------------------
          |                Property Printout                |
           -------------------------------------------------

    * Orbital Energies and Occupations

         #    Occupation            Energy/Eh            Energy/eV
      -------------------------------------------------------------
         1        2.0000           -0.7229285             -19.6719
       ...           ...                  ...                  ...
       145        2.0000           -0.4092577             -11.1365
       146        2.0000           -0.4078706             -11.0987
       147        2.0000           -0.4057764             -11.0417
       148        2.0000           -0.4045046             -11.0071
       149        2.0000           -0.4022117             -10.9447
       150        2.0000           -0.4009337             -10.9100
       151        2.0000           -0.3992235             -10.8634
       152        2.0000           -0.3967278             -10.7955
       153        2.0000           -0.3958435             -10.7714
       154        2.0000           -0.3924826             -10.6800
       155        2.0000           -0.3838419             -10.4449
       156        2.0000           -0.3799062             -10.3378
       157        2.0000           -0.3741899             -10.1822 (HOMO)
       158                         -0.2504797              -6.8159 (LUMO)
       159                         -0.2460296              -6.6948
       160                         -0.2403648              -6.5407
       161                         -0.2390941              -6.5061
       162                         -0.2297173              -6.2509
       163                         -0.2262130              -6.1556
       164                         -0.2217011              -6.0328
       165                         -0.2202258              -5.9926
       166                         -0.2134300              -5.8077
       167                         -0.2046319              -5.5683
       168                         -0.2037820              -5.5452
       ...                                ...                  ...
       277                          0.6888184              18.7437
      -------------------------------------------------------------
                  HL-Gap            0.1237102 Eh            3.3663 eV
             Fermi-level           -0.3123348 Eh           -8.4991 eV

     #   Z          covCN         q      C6AA      α(0)
     1   7 N        2.689    -0.192    25.156     7.449
     2   6 C        3.777     0.025    20.178     6.400
     3   6 C        2.771     0.277    22.322     7.738
     4   8 O        0.859    -0.412    21.930     6.279
     5   7 N        2.683    -0.228    25.981     7.570
     6   6 C        3.810     0.021    20.221     6.401
     7   6 C        2.756     0.271    22.422     7.754
     8   6 C        3.785     0.021    20.237     6.408
     9   8 O        0.857    -0.421    22.104     6.303
    10   7 N        2.690    -0.175    24.797     7.396
    11   6 C        3.754    -0.090    22.284     6.731
    12   6 C        2.747     0.257    22.671     7.796
    13   6 C        2.745     0.286    22.154     7.707
    14   6 C        3.781     0.011    20.415     6.436
    15   8 O        0.856    -0.415    21.979     6.286
    16   8 O        0.862    -0.454    22.791     6.401
    17   7 N        2.646    -0.257    26.669     7.670
    18   7 N        2.680    -0.207    25.506     7.501
    19   6 C        3.762    -0.063    21.764     6.650
    20   6 C        2.760     0.274    22.366     7.745
    21   6 C        3.843    -0.014    20.787     6.486
    22   6 C        3.800     0.027    20.125     6.387
    23   8 O        0.859    -0.431    22.314     6.333
    24   6 C        3.726    -0.106    22.643     6.794
    25   6 C        3.745    -0.097    22.426     6.755
    26   7 N        2.677    -0.225    25.929     7.563
    27   6 C        3.811    -0.051    21.484     6.598
    28   6 C        2.736     0.260    22.621     7.787
    29   6 C        3.805    -0.088    22.172     6.703
    30   6 C        3.803     0.017    20.296     6.414
    31   8 O        0.856    -0.349    20.696     6.099
    32   6 C        2.746     0.293    22.032     7.686
    33   7 N        2.697    -0.177    24.838     7.402
    34   6 C        3.721     0.113    18.842     6.199
    35   8 O        0.857    -0.430    22.281     6.329
    36   7 N        2.629    -0.295    27.597     7.802
    37   6 C        2.746     0.278    22.299     7.732
    38   8 O        1.648    -0.467    22.204     6.361
    39   6 C        3.769    -0.133    23.087     6.848
    40   6 C        3.798     0.013    20.359     6.425
    41   8 O        0.862    -0.438    22.443     6.352
    42   7 N        2.686    -0.166    24.598     7.366
    43   6 C        3.823    -0.069    21.798     6.644
    44   6 C        2.762     0.284    22.187     7.714
    45   6 C        3.809    -0.104    22.484     6.750
    46   8 O        0.859    -0.449    22.692     6.387
    47   6 C        2.752     0.286    22.153     7.707
    48   8 O        0.857    -0.413    21.952     6.282
    49   7 N        2.638    -0.291    27.503     7.789
    50   6 C        3.788    -0.067    21.803     6.650
    51   6 C        3.812    -0.104    22.475     6.748
    52   6 C        2.743     0.289    22.093     7.696
    53   8 O        0.863    -0.453    22.766     6.397
    54   7 N        2.660    -0.269    26.971     7.713
    55   6 C        3.639     0.078    19.636     6.374
    56   8 O        1.654    -0.435    21.540     6.265
    57   1 H        0.861     0.180     1.214     1.726
    58   1 H        0.916     0.082     1.961     2.190
    59   1 H        0.860     0.190     1.156     1.685
    60   1 H        0.928     0.114     1.661     2.015
    61   1 H        0.917     0.068     2.111     2.272
    62   1 H        0.859     0.184     1.190     1.709
    63   1 H        0.889     0.058     2.227     2.336
    64   1 H        0.909     0.070     2.093     2.263
    65   1 H        0.923     0.086     1.923     2.168
    66   1 H        0.860     0.204     1.086     1.632
    67   1 H        0.860     0.217     1.025     1.586
    68   1 H        0.855     0.224     0.993     1.561
    69   1 H        0.919     0.063     2.163     2.300
    70   1 H        0.899     0.010     2.898     2.664
    71   1 H        0.926     0.061     2.185     2.312
    72   1 H        0.922     0.098     1.805     2.101
    73   1 H        0.928     0.033     2.540     2.492
    74   1 H        0.923     0.039     2.464     2.455
    75   1 H        0.906     0.028     2.620     2.532
    76   1 H        0.922     0.020     2.739     2.588
    77   1 H        0.918     0.033     2.550     2.498
    78   1 H        0.925     0.040     2.454     2.450
    79   1 H        0.861     0.195     1.131     1.666
    80   1 H        0.921     0.055     2.254     2.348
    81   1 H        0.923     0.044     2.402     2.424
    82   1 H        0.917     0.063     2.169     2.303
    83   1 H        0.925     0.069     2.095     2.264
    84   1 H        0.928     0.092     1.858     2.131
    85   1 H        0.861     0.209     1.062     1.614
    86   1 H        0.915     0.034     2.532     2.489
    87   1 H        0.857     0.170     1.271     1.766
    88   1 H        0.857     0.181     1.212     1.724
    89   1 H        0.800     0.322     0.658     1.275
    90   1 H        0.928     0.062     2.170     2.303
    91   1 H        0.925     0.049     2.333     2.389
    92   1 H        0.926     0.059     2.208     2.323
    93   1 H        0.927     0.063     2.161     2.299
    94   1 H        0.861     0.186     1.179     1.701
    95   1 H        0.929     0.057     2.233     2.337
    96   1 H        0.927     0.045     2.383     2.414
    97   1 H        0.927     0.062     2.175     2.306
    98   1 H        0.929     0.110     1.697     2.037
    99   1 H        0.861     0.184     1.190     1.709
   100   1 H        0.862     0.183     1.195     1.712
   101   1 H        0.927     0.077     2.012     2.218
   102   1 H        0.924     0.063     2.166     2.302
   103   1 H        0.926     0.074     2.039     2.233
   104   1 H        0.923     0.061     2.187     2.313
   105   1 H        0.862     0.197     1.122     1.659
   106   1 H        0.861     0.205     1.079     1.627
   107   1 H        0.923     0.068     2.111     2.272
   108   1 H        0.886     0.005     2.976     2.700
   109   1 H        0.807     0.313     0.683     1.298

 Mol. C6AA /au·bohr⁶  :     113147.699942
 Mol. C8AA /au·bohr⁸  :    2502235.789964
 Mol. α(0) /au        :        499.848045


Wiberg/Mayer (AO) data.
largest (>0.10) Wiberg bond orders for each atom

 ---------------------------------------------------------------------------
     #   Z sym  total        # sym  WBO       # sym  WBO       # sym  WBO
 ---------------------------------------------------------------------------
     1   7 N    3.424 --     7 C    1.221     2 C    0.960    57 H    0.939
                             9 O    0.195
     2   6 C    3.959 --     3 C    0.980    50 C    0.970     1 N    0.960
                            58 H    0.950
     3   6 C    3.944 --     4 O    1.718     5 N    1.167     2 C    0.980
     4   8 O    2.038 --     3 C    1.718     5 N    0.176
     5   7 N    3.335 --     3 C    1.167     6 C    0.974    59 H    0.932
                             4 O    0.176
     6   6 C    3.960 --     5 N    0.974    55 C    0.966    44 C    0.954
                            60 H    0.930
     7   6 C    3.953 --     9 O    1.699     1 N    1.221     8 C    0.950
     8   6 C    3.970 --    10 N    1.011    11 C    0.953     7 C    0.950
                            61 H    0.936
     9   8 O    2.016 --     7 C    1.699     1 N    0.195
    10   7 N    3.424 --    12 C    1.214     8 C    1.011    62 H    0.929
                            15 O    0.181
    11   6 C    3.987 --    13 C    0.988    63 H    0.966     8 C    0.953
                            64 H    0.950
    12   6 C    3.935 --    15 O    1.695    10 N    1.214    14 C    0.935
    13   6 C    3.959 --    16 O    1.645    17 N    1.305    11 C    0.988
    14   6 C    3.971 --    18 N    1.010    19 C    0.962    12 C    0.935
                            65 H    0.926
    15   8 O    2.038 --    12 C    1.695    10 N    0.181
    16   8 O    1.961 --    13 C    1.645    17 N    0.206
    17   7 N    3.410 --    13 C    1.305    66 H    0.930    67 H    0.929
                            16 O    0.206
    18   7 N    3.407 --    20 C    1.206    14 C    1.010    68 H    0.889
                            23 O    0.200
    19   6 C    3.985 --    21 C    0.983    69 H    0.972    70 H    0.971
                            14 C    0.962
    20   6 C    3.952 --    23 O    1.685    18 N    1.206    22 C    0.968
    21   6 C    3.989 --    25 C    1.026    24 C    0.996    19 C    0.983
                            71 H    0.960
    22   6 C    3.974 --    26 N    1.022    27 C    0.974    20 C    0.968
                            72 H    0.901
    23   8 O    2.022 --    20 C    1.685    18 N    0.200
    24   6 C    3.991 --    21 C    0.996    73 H    0.989    74 H    0.989
                            75 H    0.986
    25   6 C    3.990 --    21 C    1.026    76 H    0.983    77 H    0.979
                            78 H    0.964
    26   7 N    3.339 --    28 C    1.099    22 C    1.022    79 H    0.914
                            31 O    0.197
    27   6 C    3.992 --    29 C    0.981    22 C    0.974    80 H    0.973
                            81 H    0.971
    28   6 C    3.936 --    31 O    1.820    26 N    1.099    30 C    0.929
    29   6 C    3.989 --    32 C    0.988    27 C    0.981    82 H    0.965
                            83 H    0.958
    30   6 C    3.967 --    34 C    0.977    33 N    0.970    84 H    0.956
                            28 C    0.929
    31   8 O    2.133 --    28 C    1.820    26 N    0.197
    32   6 C    3.934 --    35 O    1.724    36 N    1.176    29 C    0.988
    33   7 N    3.432 --    37 C    1.262    30 C    0.970    85 H    0.914
                            41 O    0.188
    34   6 C    3.957 --    39 C    0.999    30 C    0.977    38 O    0.976
                            86 H    0.965
    35   8 O    2.030 --    32 C    1.724    36 N    0.175
    36   7 N    3.281 --    32 C    1.176    87 H    0.950    88 H    0.944
                            35 O    0.175
    37   6 C    3.950 --    41 O    1.689    33 N    1.262    40 C    0.916
    38   8 O    1.960 --    34 C    0.976    89 H    0.866
    39   6 C    3.982 --    34 C    0.999    92 H    0.982    91 H    0.980
                            90 H    0.973
    40   6 C    3.960 --    42 N    0.974    43 C    0.973    93 H    0.956
                            37 C    0.916
    41   8 O    2.010 --    37 C    1.689    33 N    0.188
    42   7 N    3.403 --    44 C    1.248    40 C    0.974    94 H    0.934
                            46 O    0.166
    43   6 C    3.986 --    45 C    0.996    40 C    0.973    95 H    0.973
                            96 H    0.967
    44   6 C    3.948 --    46 O    1.648    42 N    1.248     6 C    0.954
    45   6 C    3.986 --    43 C    0.996    97 H    0.975    98 H    0.956
                            47 C    0.949
    46   8 O    1.989 --    44 C    1.648    42 N    0.166
    47   6 C    3.938 --    48 O    1.742    49 N    1.214    45 C    0.949
    48   8 O    2.042 --    47 C    1.742    49 N    0.196
    49   7 N    3.339 --    47 C    1.214   100 H    0.951    99 H    0.946
                            48 O    0.196
    50   6 C    3.987 --    51 C    0.995   101 H    0.979   102 H    0.976
                             2 C    0.970
    51   6 C    3.992 --    50 C    0.995    52 C    0.972   104 H    0.962
                           103 H    0.956
    52   6 C    3.951 --    53 O    1.674    54 N    1.280    51 C    0.972
    53   8 O    1.976 --    52 C    1.674    54 N    0.191
    54   7 N    3.379 --    52 C    1.280   105 H    0.939   106 H    0.935
                            53 O    0.191
    55   6 C    3.960 --    56 O    1.004   107 H    0.967   108 H    0.967
                             6 C    0.966
    56   8 O    1.955 --    55 C    1.004   109 H    0.888
    57   1 H    0.968 --     1 N    0.939
    58   1 H    0.993 --     2 C    0.950
    59   1 H    0.964 --     5 N    0.932
    60   1 H    0.987 --     6 C    0.930
    61   1 H    0.995 --     8 C    0.936
    62   1 H    0.966 --    10 N    0.929
    63   1 H    0.997 --    11 C    0.966
    64   1 H    0.995 --    11 C    0.950
    65   1 H    0.992 --    14 C    0.926
    66   1 H    0.958 --    17 N    0.930
    67   1 H    0.953 --    17 N    0.929
    68   1 H    0.950 --    18 N    0.889
    69   1 H    0.996 --    19 C    0.972
    70   1 H    1.000 --    19 C    0.971
    71   1 H    0.996 --    21 C    0.960
    72   1 H    0.990 --    22 C    0.901
    73   1 H    0.999 --    24 C    0.989
    74   1 H    0.998 --    24 C    0.989
    75   1 H    0.999 --    24 C    0.986
    76   1 H    1.000 --    25 C    0.983
    77   1 H    0.999 --    25 C    0.979
    78   1 H    0.998 --    25 C    0.964
    79   1 H    0.962 --    26 N    0.914
    80   1 H    0.997 --    27 C    0.973
    81   1 H    0.998 --    27 C    0.971
    82   1 H    0.996 --    29 C    0.965
    83   1 H    0.995 --    29 C    0.958
    84   1 H    0.991 --    30 C    0.956
    85   1 H    0.956 --    33 N    0.914
    86   1 H    0.998 --    34 C    0.965
    87   1 H    0.971 --    36 N    0.950
    88   1 H    0.967 --    36 N    0.944
    89   1 H    0.896 --    38 O    0.866
    90   1 H    0.996 --    39 C    0.973
    91   1 H    0.998 --    39 C    0.980
    92   1 H    0.996 --    39 C    0.982
    93   1 H    0.996 --    40 C    0.956
    94   1 H    0.965 --    42 N    0.934
    95   1 H    0.997 --    43 C    0.973
    96   1 H    0.998 --    43 C    0.967
    97   1 H    0.996 --    45 C    0.975
    98   1 H    0.988 --    45 C    0.956
    99   1 H    0.966 --    49 N    0.946
   100   1 H    0.966 --    49 N    0.951
   101   1 H    0.994 --    50 C    0.979
   102   1 H    0.996 --    50 C    0.976
   103   1 H    0.994 --    51 C    0.956
   104   1 H    0.996 --    51 C    0.962
   105   1 H    0.961 --    54 N    0.939
   106   1 H    0.957 --    54 N    0.935
   107   1 H    0.995 --    55 C    0.967
   108   1 H    1.000 --    55 C    0.967
   109   1 H    0.902 --    56 O    0.888
 ---------------------------------------------------------------------------

Topologies differ in total number of bonds
Writing topology from bond orders to xtbtopo.mol

molecular dipole:
                 x           y           z       tot (Debye)
 q only:        0.292      -1.757       2.009
   full:        0.264      -2.407       1.887       7.803
molecular quadrupole (traceless):
                xx          xy          yy          xz          yz          zz
 q only:       28.838       3.959       5.519      11.880       4.468     -34.358
  q+dip:       34.258       3.852       3.482      12.568       3.141     -37.741
   full:       34.284       3.845       3.139      12.238       4.825     -37.424


           -------------------------------------------------
          | TOTAL ENERGY             -180.521899334668 Eh   |
          | GRADIENT NORM               0.381065837359 Eh/α |
          | HOMO-LUMO GAP               3.366326093271 eV   |
           -------------------------------------------------

------------------------------------------------------------------------
 * finished run on 2026/05/23 at 12:58:53.600     
------------------------------------------------------------------------
 total:
 * wall-time:     0 d,  0 h,  0 min, 10.795 sec
 *  cpu-time:     0 d,  0 h,  0 min, 26.867 sec
 * ratio c/w:     2.489 speedup
 SCF:
 * wall-time:     0 d,  0 h,  0 min, 10.266 sec
 *  cpu-time:     0 d,  0 h,  0 min, 25.596 sec
 * ratio c/w:     2.493 speedup

normal termination of xtb
