      -----------------------------------------------------------      
     |                   =====================                   |     
     |                           x T B                           |     
     |                   =====================                   |     
     |                         S. Grimme                         |     
     |          Mulliken Center for Theoretical Chemistry        |     
     |                    University of Bonn                     |     
      -----------------------------------------------------------      

   * xtb version 6.7.1 (26dd68d) compiled by 'froitzheim@fs7' on 2026-05-14

   xtb is free software: you can redistribute it and/or modify it under
   the terms of the GNU Lesser General Public License as published by
   the Free Software Foundation, either version 3 of the License, or
   (at your option) any later version.
   
   xtb is distributed in the hope that it will be useful,
   but WITHOUT ANY WARRANTY; without even the implied warranty of
   MERCHANTABILITY or FITNESS FOR A PARTICULAR PURPOSE.  See the
   GNU Lesser General Public License for more details.
   
   Cite this work as:
   * C. Bannwarth, E. Caldeweyher, S. Ehlert, A. Hansen, P. Pracht,
     J. Seibert, S. Spicher, S. Grimme, WIREs Comput. Mol. Sci., 2020, 11,
     e01493. DOI: 10.1002/wcms.1493
   
   for g-xTB:
   * T. Froitzheim, M. Müller, A. Hansen, S. Grimme, ChemRxiv, 2025, preprint.
     DOI: 10.26434/chemrxiv-2025-bjxv
   for GFN2-xTB:
   * C. Bannwarth, S. Ehlert and S. Grimme., J. Chem. Theory Comput., 2019,
     15, 1652-1671. DOI: 10.1021/acs.jctc.8b01176
   for GFN1-xTB:
   * S. Grimme, C. Bannwarth, P. Shushkov, J. Chem. Theory Comput., 2017,
     13, 1989-2009. DOI: 10.1021/acs.jctc.7b00118
   for GFN0-xTB:
   * P. Pracht, E. Caldeweyher, S. Ehlert, S. Grimme, ChemRxiv, 2019, preprint.
     DOI: 10.26434/chemrxiv.8326202.v1
   for GFN-FF:
   * S. Spicher and S. Grimme, Angew. Chem. Int. Ed., 2020, 59, 15665-15673.
     DOI: 10.1002/anie.202004239
   
   for ALPB and GBSA implicit solvation:
   * S. Ehlert, M. Stahn, S. Spicher, S. Grimme, J. Chem. Theory Comput.,
     2021, 17, 4250-4261. DOI: 10.1021/acs.jctc.1c00471
   
   for ddCOSMO and CPCM-X implicit solvation:
   * M. Stahn, S. Ehlert, S. Grimme, J. Phys. Chem. A,
     2023, XX, XXXX-XXXX. DOI: 10.1021/acs.jpca.3c04382
   
   for DFT-D4:
   * E. Caldeweyher, C. Bannwarth and S. Grimme, J. Chem. Phys., 2017,
     147, 034112. DOI: 10.1063/1.4993215
   * E. Caldeweyher, S. Ehlert, A. Hansen, H. Neugebauer, S. Spicher,
     C. Bannwarth and S. Grimme, J. Chem. Phys., 2019, 150, 154122.
     DOI: 10.1063/1.5090222
   * E. Caldeweyher, J.-M. Mewes, S. Ehlert and S. Grimme, Phys. Chem. Chem. Phys.
     2020, 22, 8499-8512. DOI: 10.1039/D0CP00502A
   
   for sTDA-xTB:
   * S. Grimme and C. Bannwarth, J. Chem. Phys., 2016, 145, 054103.
     DOI: 10.1063/1.4959605
   
   in the mass-spec context:
   * V. Asgeirsson, C. Bauer and S. Grimme, Chem. Sci., 2017, 8, 4879.
     DOI: 10.1039/c7sc00601b
   * J. Koopman and S. Grimme, ACS Omega 2019, 4, 12, 15120-15133.
     DOI: 10.1021/acsomega.9b02011
   
   for metadynamics refer to:
   * S. Grimme, J. Chem. Theory Comput., 2019, 155, 2847-2862
     DOI: 10.1021/acs.jctc.9b00143
   
   for SPH calculations refer to:
   * S. Spicher and S. Grimme, J. Chem. Theory Comput., 2021, 17, 1701-1714
     DOI: 10.1021/acs.jctc.0c01306
   
   for ONIOM refer to:
   * C. Plett, A. Katbashev, S. Ehlert, S. Grimme, M. Bursch,
     Phys. Chem. Chem. Phys., 2023, 25, 17860-17868. DOI: 10.1039/D3CP02178E
   
   for DIPRO refer to:
   * J. Kohn, N. Gildemeister, S. Grimme, D. Fazzi, A. Hansen,
     J. Chem. Phys. 159, 144106 (2023). DOI: 10.1063/5.0167484
   
   for PTB refer to:
   * S. Grimme, M. Mueller, A. Hansen, J. Chem. Phys., 2023, 158, 124111.
     DOI: 10.1063/5.0137838
   
   with help from (in alphabetical order)
   P. Atkinson, C. Bannwarth, F. Bohle, G. Brandenburg, E. Caldeweyher,
   M. Checinski, S. Dohm, S. Ehlert, S. Ehrlich, M. Friede, T. Froitzheim,
   I. Gerasimov, C. Hölzer, A. Katbashev, J. Kohn, J. Koopman, C. Lavigne,
   S. Lehtola, F. März, M. Müller, F. Musil, H. Neugebauer, J. Pisarek,
   C. Plett, P. Pracht, F. Pultar, J. Seibert, P. Shushkov, S. Spicher,
   M. Stahn, M. Steiner, T. Strunk, J. Stückrath, T. Rose, and J. Unsleber
   
 * started run on 2026/05/23 at 12:32:50.777     
   ID    Z sym.   atoms
    1    7 N      1, 5, 13, 19, 23, 28, 35
    2    6 C      2, 3, 6-10, 12, 14, 15, 17, 20, 21, 24-26, 29, 30, 32, 33,
                  36, 37, 39, 41-44
    3    8 O      4, 11, 18, 22, 27, 31, 34, 38, 40
    4   16 S      16
    5    1 H      45-89

           -------------------------------------------------
          |                Calculation Setup                |
           -------------------------------------------------

          program call               : /home/xchen/software/xtb-6.7.1-gxtb/bin/xtb /home/xchen/Test/benchmark/md_sampled/06_7_0793_0/snap_0063.xyz --charge 0 --gxtb --norestart
          coordinate file            : /home/xchen/Test/benchmark/md_sampled/06_7_0793_0/snap_0063.xyz
          omp threads                :                    48

core increment energy         -2.3123015384480E+03 Eh
dispersion energy              2.1704473027887E-02 Eh
molecular charge               0.0000000000000E+00 e
number of electrons            2.4799999999781E+02 e
number of unpaired electrons   0.0000000000000E+00 e
wavefunction                   restricted
integral cutoff                2.6907767250513E+01 bohr
energy convergence             1.0000000000000E-06 Eh
density convergence            2.0000000000000E-05 e

------------------------------------------------------------
  cycle        total energy    energy error   density error
------------------------------------------------------------
      1     -2513.297577102  -2.0101774E+02   0.0000000E+00
      2     -2513.711109213  -4.1353211E-01   2.1957463E-02
      3     -2513.969621692  -2.5851248E-01   1.7183315E-02
      4     -2514.497065803  -5.2744411E-01   1.3535928E-02
      5     -2514.505944987  -8.8791841E-03   1.0795366E-03
      6     -2514.506480643  -5.3565615E-04   1.9712495E-04
      7     -2514.506530205  -4.9562079E-05   5.7805423E-05
      8     -2514.506534352  -4.1466596E-06   1.3733060E-05
      9     -2514.506534924  -5.7264765E-07   4.3594195E-06
------------------------------------------------------------

electronic energy             -2.0222670094938E+02 Eh
total energy                  -2.5145065349244E+03 Eh

Post processing:
 | Mayer-Wiberg bond orders
 | Molecular Multipole Moments

 total:                                  10.273 sec
 - increment                              0.000 sec (  0%)
 - repulsion                              0.011 sec (  0%)
 - dispersion                             0.399 sec (  3%)
 - coulomb                                0.144 sec (  1%)
 - exchange                               0.006 sec (  0%)
 - hamiltonian                            0.359 sec (  3%)
 - acp                                    0.236 sec (  2%)
 - spin polarization                      0.000 sec (  0%)
 - post processing                        0.128 sec (  1%)
 - scc                                    8.069 sec ( 78%)
 - coulomb gradient                       0.067 sec (  0%)
 - dispersion gradient                    0.043 sec (  0%)
 - exchange gradient                      0.116 sec (  1%)
 - repulsion gradient                     0.010 sec (  0%)
 - acp gradient                           0.312 sec (  3%)
 - hamiltonian gradient                   0.495 sec (  4%)
 - gradient                               1.043 sec ( 10%)

         :::::::::::::::::::::::::::::::::::::::::::::::::::::
         ::                     SUMMARY                     ::
         :::::::::::::::::::::::::::::::::::::::::::::::::::::
         :: total energy           -2514.506534924356 Eh    ::
         :: gradient norm              0.356272867712 Eh/a0 ::
         :: HOMO-LUMO gap              9.128458128752 eV    ::
         ::.................................................::
         :: add. restraining           0.000000000000 Eh    ::
         :: total charge              -0.000000000000 e     ::
         :::::::::::::::::::::::::::::::::::::::::::::::::::::

           -------------------------------------------------
          |                Property Printout                |
           -------------------------------------------------

    * Orbital Energies and Occupations
------------------------------------------------------------------
      #    Occupation            Energy/Eh            Energy/eV
------------------------------------------------------------------
      1        2.0000           -1.3533054             -36.8253
    ...           ...                  ...                  ...
    112        2.0000           -0.3821836             -10.3997
    113        2.0000           -0.3817505             -10.3880
    114        2.0000           -0.3794897             -10.3264
    115        2.0000           -0.3775338             -10.2732
    116        2.0000           -0.3755852             -10.2202
    117        2.0000           -0.3672583              -9.9936
    118        2.0000           -0.3654512              -9.9444
    119        2.0000           -0.3646421              -9.9224
    120        2.0000           -0.3605553              -9.8112
    121        2.0000           -0.3592902              -9.7768
    122        2.0000           -0.3547753              -9.6539
    123        2.0000           -0.3461714              -9.4198
    124        2.0000           -0.3422626              -9.3134 (HOMO)
    125                         -0.0067980              -0.1850 (LUMO)
    126                          0.0215584               0.5866
    127                          0.0235211               0.6400
    128                          0.0284973               0.7754
    129                          0.0296777               0.8076
    130                          0.0349925               0.9522
    131                          0.0381765               1.0388
    132                          0.0445638               1.2126
    133                          0.0486227               1.3231
    134                          0.1129138               3.0725
    135                          0.1261292               3.4322
    ...                                ...                  ...
    226                          0.7423256              20.1997
------------------------------------------------------------------
               HL-Gap            0.3354646 Eh            9.1285 eV
------------------------------------------------------------------

Atomic charges and shell populations (in atomic units):
-----------------------------------------------------------------
     #    Z                q          p(s)       p(p)       p(d)
-----------------------------------------------------------------
     1    7 N      -0.283391      1.362849   3.920541
     2    6 C      -0.018400      1.118110   2.900290
     3    6 C       0.415108      1.106415   2.478476
     4    8 O      -0.532123      1.860162   4.671961
     5    7 N      -0.329167      1.390921   3.938246
     6    6 C       0.013981      1.123431   2.862587
     7    6 C      -0.067375      1.159071   2.908304
     8    6 C       0.402479      1.126044   2.471477
     9    6 C      -0.192651      1.169595   3.023056
    10    6 C       0.000464      1.118595   2.880941
    11    8 O      -0.508930      1.859177   4.649753
    12    6 C      -0.155707      1.160804   2.994903
    13    7 N      -0.336691      1.381654   3.955037
    14    6 C      -0.125683      1.180324   2.945359
    15    6 C       0.432302      1.098385   2.469313
    16   16 S      -0.270611      1.856448   4.359522   0.054640
    17    6 C      -0.079489      1.136457   2.943031
    18    8 O      -0.520553      1.849720   4.670833
    19    7 N      -0.313143      1.352772   3.960371
    20    6 C       0.413940      1.088702   2.497358
    21    6 C      -0.009895      1.145637   2.864258
    22    8 O      -0.556655      1.849215   4.707439
    23    7 N      -0.300645      1.370375   3.930271
    24    6 C      -0.246109      1.169243   3.076866
    25    6 C       0.405842      1.104038   2.490119
    26    6 C      -0.025604      1.146488   2.879116
    27    8 O      -0.582728      1.853398   4.729331
    28    7 N      -0.336718      1.369956   3.966762
    29    6 C       0.109657      1.114203   2.776139
    30    6 C       0.411636      1.096105   2.492259
    31    8 O      -0.559212      1.795243   4.763969
    32    6 C      -0.279666      1.181330   3.098336
    33    6 C      -0.019026      1.126040   2.892987
    34    8 O      -0.505471      1.855992   4.649479
    35    7 N      -0.334190      1.355422   3.978768
    36    6 C       0.101476      1.122925   2.775600
    37    6 C       0.438406      1.118284   2.443309
    38    8 O      -0.574969      1.788588   4.786382
    39    6 C      -0.261361      1.184809   3.076552
    40    8 O      -0.536556      1.845670   4.690885
    41    6 C      -0.088351      1.137017   2.951334
    42    6 C      -0.249851      1.178384   3.071467
    43    6 C      -0.163810      1.130427   3.033383
    44    6 C      -0.255890      1.151735   3.104155
    45    1 H       0.146049      0.853951
    46    1 H       0.280570      0.719430
    47    1 H       0.143705      0.856295
    48    1 H       0.118596      0.881404
    49    1 H       0.106975      0.893025
    50    1 H       0.112181      0.887819
    51    1 H       0.117356      0.882644
    52    1 H       0.129904      0.870096
    53    1 H       0.106861      0.893139
    54    1 H       0.105303      0.894697
    55    1 H       0.279842      0.720158
    56    1 H       0.129271      0.870729
    57    1 H       0.108714      0.891286
    58    1 H       0.173606      0.826394
    59    1 H       0.125664      0.874336
    60    1 H       0.140382      0.859618
    61    1 H       0.271381      0.728619
    62    1 H       0.140223      0.859777
    63    1 H       0.284993      0.715007
    64    1 H       0.143216      0.856784
    65    1 H       0.090337      0.909663
    66    1 H       0.108525      0.891475
    67    1 H       0.158015      0.841985
    68    1 H       0.257421      0.742579
    69    1 H       0.109118      0.890882
    70    1 H       0.364415      0.635585
    71    1 H       0.090137      0.909863
    72    1 H       0.103497      0.896503
    73    1 H       0.103756      0.896244
    74    1 H       0.132477      0.867523
    75    1 H       0.257016      0.742984
    76    1 H       0.080689      0.919311
    77    1 H       0.363892      0.636108
    78    1 H       0.090630      0.909370
    79    1 H       0.108937      0.891063
    80    1 H       0.102761      0.897239
    81    1 H       0.087105      0.912895
    82    1 H       0.095529      0.904471
    83    1 H       0.081293      0.918707
    84    1 H       0.092685      0.907315
    85    1 H       0.080217      0.919783
    86    1 H       0.085493      0.914507
    87    1 H       0.092298      0.907702
    88    1 H       0.079666      0.920334
    89    1 H       0.094628      0.905372
-----------------------------------------------------------------


Wiberg/Mayer (AO) data.
largest (>0.10) Wiberg bond orders for each atom

 ---------------------------------------------------------------------------
     #   Z sym  total        # sym  WBO       # sym  WBO       # sym  WBO
 ---------------------------------------------------------------------------
     1   7 N    3.364 --     8 C    1.158     2 C    0.969     7 C    0.940
                            11 C    0.146
     2   6 C    3.925 --    12 C    0.986     1 N    0.969    45 N    0.919
                             3 C    0.911
     3   6 C    3.871 --     4 C    1.652     5 N    1.231     2 C    0.911
     4   8 C    1.932 --     3 C    1.652     5 N    0.153
     5   7 N    3.317 --     3 C    1.231     6 C    0.982    46 N    0.839
                             4 C    0.153
     6   6 C    3.936 --     5 N    0.982    41 C    0.966    47 N    0.931
                            37 C    0.910
     7   6 C    3.909 --     9 C    0.990    49 N    0.961    48 N    0.953
                             1 N    0.940
     8   6 C    3.856 --    11 C    1.691     1 N    1.158    10 C    0.891
     9   6 C    3.956 --    12 C    1.001     7 C    0.990    50 N    0.963
                            51 N    0.962
    10   6 C    3.944 --    13 N    1.002    14 C    0.979    52 N    0.926
                             8 C    0.891
    11   8 C    1.970 --     8 C    1.691     1 N    0.146
    12   6 C    3.954 --     9 C    1.001     2 C    0.986    53 N    0.962
                            54 N    0.952
    13   7 N    3.280 --    15 C    1.150    10 C    1.002    55 N    0.885
                            18 C    0.145
    14   6 C    3.929 --    16 O    1.007    10 C    0.979    57 N    0.947
                            56 N    0.926
    15   6 C    3.862 --    18 C    1.710    13 N    1.150    17 C    0.934
    16  16 O    2.035 --    14 C    1.007    58 N    0.946
    17   6 C    3.914 --    19 N    0.968    59 N    0.954    60 N    0.946
                            15 C    0.934
    18   8 C    1.973 --    15 C    1.710    13 N    0.145
    19   7 N    3.354 --    20 C    1.243    17 C    0.968    61 N    0.891
                            22 C    0.164
    20   6 C    3.877 --    22 C    1.634    19 N    1.243    21 C    0.944
    21   6 C    3.918 --    24 C    0.991    20 C    0.944    62 N    0.942
                            23 N    0.919
    22   8 C    1.931 --    20 C    1.634    19 N    0.164
    23   7 N    3.380 --    25 C    1.334    21 C    0.919    63 N    0.874
                            27 C    0.170
    24   6 C    3.941 --    21 C    0.991    65 N    0.973    66 N    0.971
                            64 N    0.951
    25   6 C    3.875 --    27 C    1.573    23 N    1.334    26 C    0.895
    26   6 C    3.912 --    29 C    0.963    28 N    0.960    67 N    0.928
                            25 C    0.895
    27   8 C    1.902 --    25 C    1.573    23 N    0.170
    28   7 N    3.315 --    30 C    1.211    26 C    0.960    68 N    0.893
                            34 C    0.162
    29   6 C    3.907 --    32 C    0.985    31 C    0.971    26 C    0.963
                            69 N    0.941
    30   6 C    3.882 --    34 C    1.685    28 N    1.211    33 C    0.921
    31   8 C    1.888 --    29 C    0.971    70 N    0.825
    32   6 C    3.955 --    29 C    0.985    71 N    0.975    73 N    0.974
                            72 N    0.971
    33   6 C    3.940 --    35 N    0.979    36 C    0.946    74 N    0.940
                            30 C    0.921
    34   8 C    1.970 --    30 C    1.685    28 N    0.162
    35   7 N    3.296 --    37 C    1.170    33 C    0.979    75 N    0.904
                            40 C    0.151
    36   6 C    3.896 --    38 C    0.977    39 C    0.971    76 N    0.946
                            33 C    0.946
    37   6 C    3.836 --    40 C    1.667    35 N    1.170     6 C    0.910
    38   8 C    1.899 --    36 C    0.977    77 N    0.818
    39   6 C    3.950 --    80 N    0.975    79 N    0.973    36 C    0.971
                            78 N    0.961
    40   8 C    1.996 --    37 C    1.667    35 N    0.151
    41   6 C    3.973 --    43 C    1.002    42 C    0.989     6 C    0.966
                            81 N    0.945
    42   6 C    3.954 --    41 C    0.989    82 N    0.974    83 N    0.974
                            84 N    0.973
    43   6 C    3.973 --    44 C    1.033    41 C    1.002    86 N    0.949
                            85 N    0.942
    44   6 C    3.965 --    43 C    1.033    87 N    0.972    88 N    0.971
                            89 N    0.969
    45   1 N    0.979 --     2 C    0.919
    46   1 N    0.921 --     5 N    0.839
    47   1 N    0.979 --     6 C    0.931
    48   1 N    0.986 --     7 C    0.953
    49   1 N    0.989 --     7 C    0.961
    50   1 N    0.987 --     9 C    0.963
    51   1 N    0.986 --     9 C    0.962
    52   1 N    0.983 --    10 C    0.926
    53   1 N    0.989 --    12 C    0.962
    54   1 N    0.989 --    12 C    0.952
    55   1 N    0.922 --    13 N    0.885
    56   1 N    0.983 --    14 C    0.926
    57   1 N    0.988 --    14 C    0.947
    58   1 N    0.970 --    16 O    0.946
    59   1 N    0.984 --    17 C    0.954
    60   1 N    0.980 --    17 C    0.946
    61   1 N    0.926 --    19 N    0.891
    62   1 N    0.980 --    21 C    0.942
    63   1 N    0.919 --    23 N    0.874
    64   1 N    0.979 --    24 C    0.951
    65   1 N    0.992 --    24 C    0.973
    66   1 N    0.988 --    24 C    0.971
    67   1 N    0.975 --    26 C    0.928
    68   1 N    0.934 --    28 N    0.893
    69   1 N    0.988 --    29 C    0.941
    70   1 N    0.867 --    31 C    0.825
    71   1 N    0.992 --    32 C    0.975
    72   1 N    0.989 --    32 C    0.971
    73   1 N    0.989 --    32 C    0.974
    74   1 N    0.982 --    33 C    0.940
    75   1 N    0.934 --    35 N    0.904
    76   1 N    0.993 --    36 C    0.946
    77   1 N    0.868 --    38 C    0.818
    78   1 N    0.992 --    39 C    0.961
    79   1 N    0.988 --    39 C    0.973
    80   1 N    0.989 --    39 C    0.975
    81   1 N    0.992 --    41 C    0.945
    82   1 N    0.991 --    42 C    0.974
    83   1 N    0.993 --    42 C    0.974
    84   1 N    0.991 --    42 C    0.973
    85   1 N    0.994 --    43 C    0.942
    86   1 N    0.993 --    43 C    0.949
    87   1 N    0.991 --    44 C    0.972
    88   1 N    0.994 --    44 C    0.971
    89   1 N    0.991 --    44 C    0.969
 ---------------------------------------------------------------------------

Topologies differ in total number of bonds
Writing topology from bond orders to xtbtopo.mol

Atomic dipole moments (in atomic units):
---------------------------------------------------------
     #    Z                 x            y            z
---------------------------------------------------------
           total     1.581443    -0.106160     2.391034
---------------------------------------------------------
         |total|     2.868671     7.291435 Debye


           -------------------------------------------------
          | TOTAL ENERGY            -2514.506534924356 Eh   |
          | GRADIENT NORM               0.356272867712 Eh/α |
           -------------------------------------------------

------------------------------------------------------------------------
 * finished run on 2026/05/23 at 12:33:01.940     
------------------------------------------------------------------------
 total:
 * wall-time:     0 d,  0 h,  0 min, 11.162 sec
 *  cpu-time:     0 d,  0 h,  0 min, 22.067 sec
 * ratio c/w:     1.977 speedup
 SCF:
 * wall-time:     0 d,  0 h,  0 min, 10.655 sec
 *  cpu-time:     0 d,  0 h,  0 min, 21.766 sec
 * ratio c/w:     2.043 speedup

normal termination of xtb
