      -----------------------------------------------------------      
     |                   =====================                   |     
     |                           x T B                           |     
     |                   =====================                   |     
     |                         S. Grimme                         |     
     |          Mulliken Center for Theoretical Chemistry        |     
     |                    University of Bonn                     |     
      -----------------------------------------------------------      

   * xtb version 6.7.1 (edcfbbe) compiled by 'albert@albert-system' on 2024-07-22

   xtb is free software: you can redistribute it and/or modify it under
   the terms of the GNU Lesser General Public License as published by
   the Free Software Foundation, either version 3 of the License, or
   (at your option) any later version.
   
   xtb is distributed in the hope that it will be useful,
   but WITHOUT ANY WARRANTY; without even the implied warranty of
   MERCHANTABILITY or FITNESS FOR A PARTICULAR PURPOSE.  See the
   GNU Lesser General Public License for more details.
   
   Cite this work as:
   * C. Bannwarth, E. Caldeweyher, S. Ehlert, A. Hansen, P. Pracht,
     J. Seibert, S. Spicher, S. Grimme, WIREs Comput. Mol. Sci., 2020, 11,
     e01493. DOI: 10.1002/wcms.1493
   
   for GFN2-xTB:
   * C. Bannwarth, S. Ehlert and S. Grimme., J. Chem. Theory Comput., 2019,
     15, 1652-1671. DOI: 10.1021/acs.jctc.8b01176
   for GFN1-xTB:
   * S. Grimme, C. Bannwarth, P. Shushkov, J. Chem. Theory Comput., 2017,
     13, 1989-2009. DOI: 10.1021/acs.jctc.7b00118
   for GFN0-xTB:
   * P. Pracht, E. Caldeweyher, S. Ehlert, S. Grimme, ChemRxiv, 2019, preprint.
     DOI: 10.26434/chemrxiv.8326202.v1
   for GFN-FF:
   * S. Spicher and S. Grimme, Angew. Chem. Int. Ed., 2020, 59, 15665-15673.
     DOI: 10.1002/anie.202004239
   
   for ALPB and GBSA implicit solvation:
   * S. Ehlert, M. Stahn, S. Spicher, S. Grimme, J. Chem. Theory Comput.,
     2021, 17, 4250-4261. DOI: 10.1021/acs.jctc.1c00471
   
   for ddCOSMO and CPCM-X implicit solvation:
   * M. Stahn, S. Ehlert, S. Grimme, J. Phys. Chem. A,
     2023, XX, XXXX-XXXX. DOI: 10.1021/acs.jpca.3c04382
   
   for DFT-D4:
   * E. Caldeweyher, C. Bannwarth and S. Grimme, J. Chem. Phys., 2017,
     147, 034112. DOI: 10.1063/1.4993215
   * E. Caldeweyher, S. Ehlert, A. Hansen, H. Neugebauer, S. Spicher,
     C. Bannwarth and S. Grimme, J. Chem. Phys., 2019, 150, 154122.
     DOI: 10.1063/1.5090222
   * E. Caldeweyher, J.-M. Mewes, S. Ehlert and S. Grimme, Phys. Chem. Chem. Phys.
     2020, 22, 8499-8512. DOI: 10.1039/D0CP00502A
   
   for sTDA-xTB:
   * S. Grimme and C. Bannwarth, J. Chem. Phys., 2016, 145, 054103.
     DOI: 10.1063/1.4959605
   
   in the mass-spec context:
   * V. Asgeirsson, C. Bauer and S. Grimme, Chem. Sci., 2017, 8, 4879.
     DOI: 10.1039/c7sc00601b
   * J. Koopman and S. Grimme, ACS Omega 2019, 4, 12, 15120-15133.
     DOI: 10.1021/acsomega.9b02011
   
   for metadynamics refer to:
   * S. Grimme, J. Chem. Theory Comput., 2019, 155, 2847-2862
     DOI: 10.1021/acs.jctc.9b00143
   
   for SPH calculations refer to:
   * S. Spicher and S. Grimme, J. Chem. Theory Comput., 2021, 17, 1701-1714
     DOI: 10.1021/acs.jctc.0c01306
   
   for ONIOM refer to:
   * C. Plett, A. Katbashev, S. Ehlert, S. Grimme, M. Bursch,
     Phys. Chem. Chem. Phys., 2023, 25, 17860-17868. DOI: 10.1039/D3CP02178E
   
   for DIPRO refer to:
   * J. Kohn, N. Gildemeister, S. Grimme, D. Fazzi, A. Hansen,
     J. Chem. Phys., 2023, just accepted.
   
   for PTB refer to:
   * S. Grimme, M. Mueller, A. Hansen, J. Chem. Phys., 2023, 158, 124111.
     DOI: 10.1063/5.0137838
   
   with help from (in alphabetical order)
   P. Atkinson, C. Bannwarth, F. Bohle, G. Brandenburg, E. Caldeweyher
   M. Checinski, S. Dohm, S. Ehlert, S. Ehrlich, I. Gerasimov, C. Hölzer
   A. Katbashev, J. Kohn, J. Koopman, C. Lavigne, S. Lehtola, F. März, M. Müller,
   F. Musil, H. Neugebauer, J. Pisarek, C. Plett, P. Pracht, F. Pultar,
   J. Seibert, P. Shushkov, S. Spicher, M. Stahn, M. Steiner, T. Strunk,
   J. Stückrath, T. Rose, and J. Unsleber
   
 * started run on 2026/05/23 at 12:54:56.623     
   ID    Z sym.   atoms
    1    7 N      1, 5, 10, 17, 27, 34, 39, 43, 54, 56, 57
    2    6 C      2, 3, 6-8, 11-14, 16, 18, 21-23, 28-31, 33, 35-38, 40,
                  44-48, 50-53, 55, 58
    3    8 O      4, 9, 15, 19, 20, 24-26, 32, 41, 49
    4   16 S      42
    5    1 H      59-117

           -------------------------------------------------
          |                Calculation Setup                |
           -------------------------------------------------

          program call               : /home/xchen/software/xtb-6.7.1/xtb-dist/bin/xtb /home/xchen/Test/benchmark/md_sampled/04_7_0231_n2/snap_0130.xyz --charge -2 --gfn 2 --norestart
          coordinate file            : /home/xchen/Test/benchmark/md_sampled/04_7_0231_n2/snap_0130.xyz
          omp threads                :                    48


           -------------------------------------------------
          |                 G F N 2 - x T B                 |
           -------------------------------------------------

        Reference                      10.1021/acs.jctc.8b01176
      * Hamiltonian:
        H0-scaling (s, p, d)           1.850000    2.230000    2.230000
        zeta-weighting                 0.500000
      * Dispersion:
        s8                             2.700000
        a1                             0.520000
        a2                             5.000000
        s9                             5.000000
      * Repulsion:
        kExp                           1.500000    1.000000
        rExp                           1.000000
      * Coulomb:
        alpha                          2.000000
        third order                    shell-resolved
        anisotropic                    true
        a3                             3.000000
        a5                             4.000000
        cn-shift                       1.200000
        cn-exp                         4.000000
        max-rad                        5.000000


          ...................................................
          :                      SETUP                      :
          :.................................................:
          :  # basis functions                 297          :
          :  # atomic orbitals                 296          :
          :  # shells                          176          :
          :  # electrons                       328          :
          :  max. iterations                   250          :
          :  Hamiltonian                  GFN2-xTB          :
          :  restarted?                      false          :
          :  GBSA solvation                  false          :
          :  PC potential                    false          :
          :  electronic temp.          300.0000000     K    :
          :  accuracy                    1.0000000          :
          :  -> integral cutoff          0.2500000E+02      :
          :  -> integral neglect         0.1000000E-07      :
          :  -> SCF convergence          0.1000000E-05 Eh   :
          :  -> wf. convergence          0.1000000E-03 e    :
          :  Broyden damping             0.4000000          :
          :  net charge                         -2          :
          :  unpaired electrons                  0          :
          ...................................................

 iter      E             dE          RMSdq      gap      omega  full diag
   1   -187.0244169 -0.187024E+03  0.412E+00    3.68       0.0  T
   2   -187.4777102 -0.453293E+00  0.216E+00    2.34       1.0  T
   3   -187.5036322 -0.259221E-01  0.115E+00    1.32       1.0  T
   4   -187.4167704  0.868618E-01  0.633E-01    0.05       1.0  T
   5   -187.5108539 -0.940835E-01  0.258E-01    1.17       1.0  T
   6   -187.5151959 -0.434204E-02  0.144E-01    1.15       1.0  T
   7   -187.5154538 -0.257897E-03  0.106E-01    1.06       1.0  T
   8   -187.5160168 -0.562973E-03  0.710E-02    0.90       1.0  T
   9   -187.5162155 -0.198739E-03  0.523E-02    0.78       1.0  T
  10   -187.5163747 -0.159133E-03  0.291E-02    0.58       1.0  T
  11   -187.5164334 -0.587765E-04  0.122E-02    0.43       1.0  T
  12   -187.5164476 -0.141040E-04  0.335E-03    0.37       2.8  T
  13   -187.5164489 -0.131419E-05  0.701E-04    0.35      13.2  T
  14   -187.5164489  0.736702E-08  0.441E-04    0.34      21.0  T
  15   -187.5164489 -0.203581E-07  0.107E-04    0.35      86.6  T

   *** convergence criteria satisfied after 15 iterations ***

         #    Occupation            Energy/Eh            Energy/eV
      -------------------------------------------------------------
         1        2.0000           -0.5987145             -16.2918
       ...           ...                  ...                  ...
       158        2.0000           -0.2109266              -5.7396
       159        2.0000           -0.2072516              -5.6396
       160        2.0000           -0.1995482              -5.4300
       161        2.0000           -0.1810875              -4.9276
       162        2.0000           -0.1607569              -4.3744
       163        2.0000           -0.1472027              -4.0056
       164        1.9975           -0.1260890              -3.4311 (HOMO)
       165        0.0024           -0.1133418              -3.0842 (LUMO)
       166        0.0000           -0.1093308              -2.9750
       167                         -0.1021532              -2.7797
       168                         -0.0845644              -2.3011
       169                         -0.0704057              -1.9158
       ...                                ...                  ...
       296                          0.9435977              25.6766
      -------------------------------------------------------------
                  HL-Gap            0.0127472 Eh            0.3469 eV
             Fermi-level           -0.1197223 Eh           -3.2578 eV

 SCC (total)                   0 d,  0 h,  0 min, 14.728 sec
 SCC setup                      ...        0 min,  0.033 sec (  0.226%)
 Dispersion                     ...        0 min,  0.142 sec (  0.966%)
 classical contributions        ...        0 min,  0.006 sec (  0.042%)
 integral evaluation            ...        0 min,  0.371 sec (  2.519%)
 iterations                     ...        0 min, 13.436 sec ( 91.226%)
 molecular gradient             ...        0 min,  0.726 sec (  4.927%)
 printout                       ...        0 min,  0.014 sec (  0.093%)

         :::::::::::::::::::::::::::::::::::::::::::::::::::::
         ::                     SUMMARY                     ::
         :::::::::::::::::::::::::::::::::::::::::::::::::::::
         :: total energy            -185.526520267789 Eh    ::
         :: gradient norm              0.420718694714 Eh/a0 ::
         :: HOMO-LUMO gap              0.346868556767 eV    ::
         ::.................................................::
         :: SCC energy              -187.510529221316 Eh    ::
         :: -> isotropic ES            0.693618351885 Eh    ::
         :: -> anisotropic ES          0.010533963625 Eh    ::
         :: -> anisotropic XC          0.064086645184 Eh    ::
         :: -> dispersion             -0.138015315060 Eh    ::
         :: repulsion energy           1.984008953528 Eh    ::
         :: add. restraining           0.000000000000 Eh    ::
         :: total charge              -2.000000000628 e     ::
         :::::::::::::::::::::::::::::::::::::::::::::::::::::

           -------------------------------------------------
          |                Property Printout                |
           -------------------------------------------------

    * Orbital Energies and Occupations

         #    Occupation            Energy/Eh            Energy/eV
      -------------------------------------------------------------
         1        2.0000           -0.5987145             -16.2918
       ...           ...                  ...                  ...
       152        2.0000           -0.2521651              -6.8618
       153        2.0000           -0.2438696              -6.6360
       154        2.0000           -0.2375033              -6.4628
       155        2.0000           -0.2333780              -6.3505
       156        2.0000           -0.2263463              -6.1592
       157        2.0000           -0.2233663              -6.0781
       158        2.0000           -0.2109266              -5.7396
       159        2.0000           -0.2072516              -5.6396
       160        2.0000           -0.1995482              -5.4300
       161        2.0000           -0.1810875              -4.9276
       162        2.0000           -0.1607569              -4.3744
       163        2.0000           -0.1472027              -4.0056
       164        1.9975           -0.1260890              -3.4311 (HOMO)
       165        0.0024           -0.1133418              -3.0842 (LUMO)
       166        0.0000           -0.1093308              -2.9750
       167                         -0.1021532              -2.7797
       168                         -0.0845644              -2.3011
       169                         -0.0704057              -1.9158
       170                         -0.0703372              -1.9140
       171                         -0.0671465              -1.8272
       172                         -0.0510263              -1.3885
       173                         -0.0494059              -1.3444
       174                         -0.0402607              -1.0955
       175                         -0.0264133              -0.7187
       ...                                ...                  ...
       296                          0.9435977              25.6766
      -------------------------------------------------------------
                  HL-Gap            0.0127472 Eh            0.3469 eV
             Fermi-level           -0.1197223 Eh           -3.2578 eV

     #   Z          covCN         q      C6AA      α(0)
     1   7 N        2.695    -0.189    25.091     7.439
     2   6 C        3.790     0.025    20.171     6.396
     3   6 C        2.751     0.288    22.112     7.700
     4   8 O        0.858    -0.409    21.863     6.269
     5   7 N        2.689    -0.194    25.208     7.457
     6   6 C        3.791     0.021    20.234     6.406
     7   6 C        2.749     0.279    22.285     7.730
     8   6 C        3.804     0.033    20.018     6.370
     9   8 O        0.857    -0.429    22.272     6.327
    10   7 N        2.700    -0.213    25.634     7.520
    11   6 C        3.810    -0.050    21.454     6.593
    12   6 C        2.748     0.277    22.305     7.733
    13   6 C        3.774    -0.097    22.387     6.742
    14   6 C        3.797     0.052    19.713     6.322
    15   8 O        0.859    -0.459    22.897     6.416
    16   6 C        2.673     0.375    20.646     7.435
    17   7 N        2.053    -0.425    31.937     8.383
    18   6 C        3.776    -0.094    22.322     6.732
    19   8 O        0.857    -0.573    25.476     6.767
    20   8 O        0.856    -0.601    26.138     6.854
    21   6 C        2.789     0.234    23.099     7.873
    22   6 C        2.689     0.357    20.937     7.488
    23   6 C        3.784     0.028    20.112     6.388
    24   8 O        0.855    -0.594    25.968     6.832
    25   8 O        0.856    -0.470    23.123     6.447
    26   8 O        1.639    -0.417    21.199     6.215
    27   7 N        2.707    -0.219    25.776     7.540
    28   6 C        3.803    -0.056    21.573     6.613
    29   6 C        2.762     0.271    22.415     7.753
    30   6 C        3.796    -0.065    21.756     6.642
    31   6 C        3.805     0.032    20.027     6.371
    32   8 O        0.857    -0.412    21.914     6.276
    33   6 C        3.775    -0.061    21.701     6.638
    34   7 N        2.700    -0.207    25.497     7.499
    35   6 C        3.773    -0.059    21.668     6.633
    36   6 C        3.736     0.027    20.203     6.415
    37   6 C        2.741     0.281    22.249     7.723
    38   6 C        3.783    -0.008    20.741     6.487
    39   7 N        2.616    -0.352    29.076     8.008
    40   6 C        3.806     0.007    20.450     6.438
    41   8 O        0.858    -0.417    22.018     6.291
    42  16 S        1.966    -0.211   150.042    20.616
    43   7 N        2.677    -0.237    26.195     7.601
    44   6 C        3.846    -0.005    20.636     6.462
    45   6 C        3.727    -0.031    21.230     6.579
    46   6 C        2.760     0.268    22.468     7.762
    47   6 C        3.728    -0.100    22.523     6.776
    48   6 C        3.809    -0.067    21.774     6.642
    49   8 O        0.858    -0.409    21.857     6.268
    50   6 C        3.746    -0.104    22.548     6.773
    51   6 C        3.796    -0.057    21.600     6.618
    52   6 C        3.808    -0.076    21.949     6.669
    53   6 C        3.717     0.010    20.520     6.471
    54   7 N        2.700    -0.262    26.797     7.688
    55   6 C        2.732     0.235    23.084     7.866
    56   7 N        1.781    -0.442    32.544     8.449
    57   7 N        2.644    -0.292    27.535     7.793
    58   6 C        3.722    -0.109    22.695     6.804
    59   1 H        0.860     0.215     1.034     1.593
    60   1 H        0.927     0.060     2.203     2.321
    61   1 H        0.860     0.196     1.129     1.664
    62   1 H        0.917     0.088     1.900     2.156
    63   1 H        0.927     0.044     2.395     2.420
    64   1 H        0.861     0.186     1.181     1.703
    65   1 H        0.922     0.050     2.315     2.380
    66   1 H        0.921     0.020     2.729     2.584
    67   1 H        0.915     0.015     2.813     2.623
    68   1 H        0.922    -0.012     3.281     2.833
    69   1 H        0.925     0.043     2.413     2.429
    70   1 H        1.012     0.339     0.603     1.213
    71   1 H        0.920     0.059     2.207     2.324
    72   1 H        0.918     0.043     2.408     2.427
    73   1 H        0.928     0.057     2.236     2.338
    74   1 H        0.860     0.192     1.147     1.678
    75   1 H        0.927     0.023     2.684     2.562
    76   1 H        0.925     0.037     2.492     2.469
    77   1 H        0.925     0.067     2.124     2.279
    78   1 H        0.927     0.037     2.495     2.470
    79   1 H        0.926     0.051     2.307     2.375
    80   1 H        0.913     0.045     2.383     2.415
    81   1 H        0.921     0.015     2.809     2.621
    82   1 H        0.862     0.193     1.144     1.676
    83   1 H        0.895     0.047     2.360     2.404
    84   1 H        0.923     0.065     2.144     2.290
    85   1 H        0.921    -0.005     3.152     2.777
    86   1 H        0.929     0.024     2.680     2.560
    87   1 H        0.915     0.037     2.495     2.471
    88   1 H        0.934     0.064     2.153     2.294
    89   1 H        0.861     0.196     1.128     1.664
    90   1 H        0.848     0.098     1.816     2.112
    91   1 H        0.927     0.093     1.851     2.128
    92   1 H        0.861     0.185     1.187     1.707
    93   1 H        0.915     0.033     2.551     2.498
    94   1 H        0.912     0.047     2.360     2.403
    95   1 H        0.914     0.043     2.416     2.431
    96   1 H        0.929     0.049     2.334     2.389
    97   1 H        0.890     0.014     2.836     2.636
    98   1 H        0.927     0.052     2.289     2.366
    99   1 H        0.923     0.043     2.410     2.428
   100   1 H        0.923     0.040     2.449     2.447
   101   1 H        0.914     0.037     2.490     2.468
   102   1 H        0.921     0.026     2.648     2.545
   103   1 H        0.924     0.031     2.578     2.511
   104   1 H        0.929     0.046     2.365     2.405
   105   1 H        0.923     0.062     2.178     2.308
   106   1 H        0.920     0.029     2.602     2.523
   107   1 H        0.928     0.048     2.342     2.393
   108   1 H        0.927     0.063     2.164     2.300
   109   1 H        0.914     0.018     2.774     2.605
   110   1 H        0.923     0.028     2.615     2.529
   111   1 H        0.861     0.181     1.211     1.723
   112   1 H        0.862     0.141     1.462     1.894
   113   1 H        0.852     0.167     1.291     1.781
   114   1 H        0.856     0.167     1.294     1.782
   115   1 H        0.905     0.077     2.017     2.222
   116   1 H        0.922     0.024     2.676     2.559
   117   1 H        0.920     0.042     2.428     2.437

 Mol. C6AA /au·bohr⁶  :     136805.898820
 Mol. C8AA /au·bohr⁸  :    3098338.666197
 Mol. α(0) /au        :        552.537599


Wiberg/Mayer (AO) data.
largest (>0.10) Wiberg bond orders for each atom

 ---------------------------------------------------------------------------
     #   Z sym  total        # sym  WBO       # sym  WBO       # sym  WBO
 ---------------------------------------------------------------------------
     1   7 N    3.444 --     7 C    1.294     2 C    0.967    59 H    0.899
                             9 O    0.198
     2   6 C    3.973 --    51 C    0.979     1 N    0.967    60 H    0.957
                             3 C    0.946
     3   6 C    3.947 --     4 O    1.727     5 N    1.188     2 C    0.946
     4   8 O    2.043 --     3 C    1.727     5 N    0.181
     5   7 N    3.377 --     3 C    1.188     6 C    0.987    61 H    0.929
                             4 O    0.181
     6   6 C    3.966 --     5 N    0.987    58 C    0.986    46 C    0.966
                            62 H    0.923
     7   6 C    3.944 --     9 O    1.685     1 N    1.294     8 C    0.888
     8   6 C    3.960 --    11 C    1.005    10 N    0.973    63 H    0.953
                             7 C    0.888
     9   8 O    2.035 --     7 C    1.685     1 N    0.198
    10   7 N    3.413 --    12 C    1.224     8 C    0.973    64 H    0.924
                            15 O    0.187
    11   6 C    3.983 --     8 C    1.005    13 C    0.989    66 H    0.969
                            65 H    0.963
    12   6 C    3.939 --    15 O    1.668    10 N    1.224    14 C    0.947
    13   6 C    3.942 --    11 C    0.989    68 H    0.978    67 H    0.968
                            16 C    0.855
    14   6 C    3.981 --    17 N    1.018    69 H    0.956    12 C    0.947
                            18 C    0.931
    15   8 O    2.003 --    12 C    1.668    10 N    0.187
    16   6 C    3.942 --    19 O    1.550    20 O    1.519    13 C    0.855
    17   7 N    3.049 --    21 C    1.436    14 C    1.018    24 O    0.223
                            70 H    0.206
    18   6 C    3.987 --    22 C    0.999    72 H    0.977    71 H    0.945
                            14 C    0.931
    19   8 O    1.887 --    16 C    1.550    20 O    0.227
    20   8 O    1.834 --    16 C    1.519    19 O    0.227
    21   6 C    3.955 --    24 O    1.481    17 N    1.436    23 C    0.950
    22   6 C    3.932 --    25 O    1.666    26 O    1.228    18 C    0.999
    23   6 C    3.956 --    27 N    0.971    73 H    0.965    28 C    0.963
                            21 C    0.950
    24   8 O    1.844 --    21 C    1.481    17 N    0.223
    25   8 O    1.949 --    22 C    1.666    26 O    0.174
    26   8 O    2.190 --    22 C    1.228    70 H    0.658    25 O    0.174
    27   7 N    3.409 --    29 C    1.220    23 C    0.971    74 H    0.915
                            32 O    0.205
    28   6 C    3.988 --    30 C    1.011    75 H    0.974    76 H    0.973
                            23 C    0.963
    29   6 C    3.955 --    32 O    1.714    27 N    1.220    31 C    0.950
    30   6 C    3.990 --    28 C    1.011    33 C    0.991    78 H    0.980
                            77 H    0.967
    31   6 C    3.963 --    35 C    0.987    34 N    0.963    29 C    0.950
                            79 H    0.939
    32   8 O    2.035 --    29 C    1.714    27 N    0.205
    33   6 C    3.991 --    36 C    1.003    30 C    0.991    81 H    0.978
                            80 H    0.976
    34   7 N    3.416 --    37 C    1.231    31 C    0.963    82 H    0.923
                            41 O    0.198
    35   6 C    3.986 --    38 C    0.993    31 C    0.987    84 H    0.973
                            83 H    0.964
    36   6 C    3.993 --    39 N    1.028    33 C    1.003    86 H    0.981
                            85 H    0.968
    37   6 C    3.949 --    41 O    1.714    34 N    1.231    40 C    0.924
    38   6 C    3.971 --    42 S    1.009    35 C    0.993    87 H    0.966
                            88 H    0.964
    39   7 N    2.997 --    36 C    1.028    90 H    0.976    89 H    0.928
    40   6 C    3.955 --    44 C    0.974    43 N    0.959    91 H    0.948
                            37 C    0.924
    41   8 O    2.037 --    37 C    1.714    34 N    0.198
    42  16 S    2.136 --    45 C    1.017    38 C    1.009
    43   7 N    3.369 --    46 C    1.185    40 C    0.959    92 H    0.929
                            49 O    0.193
    44   6 C    3.992 --    47 C    1.011    48 C    0.997    40 C    0.974
                            93 H    0.959
    45   6 C    3.978 --    42 S    1.017    96 H    0.978    94 H    0.975
                            95 H    0.975
    46   6 C    3.947 --    49 O    1.726    43 N    1.185     6 C    0.966
    47   6 C    3.993 --    44 C    1.011    97 H    0.982    98 H    0.979
                            99 H    0.976
    48   6 C    3.990 --    50 C    1.014    44 C    0.997   100 H    0.970
                           101 H    0.963
    49   8 O    2.043 --    46 C    1.726    43 N    0.193
    50   6 C    3.992 --    48 C    1.014   104 H    0.988   103 H    0.986
                           102 H    0.983
    51   6 C    3.989 --    52 C    1.007     2 C    0.979   105 H    0.974
                           106 H    0.965
    52   6 C    3.988 --    51 C    1.007    53 C    1.000   107 H    0.976
                           108 H    0.971
    53   6 C    3.974 --    52 C    1.000    54 N    0.990   110 H    0.975
                           109 H    0.963
    54   7 N    3.232 --    55 C    1.096    53 C    0.990   111 H    0.918
                            56 N    0.130
    55   6 C    3.961 --    56 N    1.697    57 N    1.142    54 N    1.096
    56   7 N    2.941 --    55 C    1.697   112 H    0.950    54 N    0.130
                            57 N    0.115
    57   7 N    3.226 --    55 C    1.142   114 H    0.949   113 H    0.947
                            56 N    0.115
    58   6 C    3.989 --     6 C    0.986   116 H    0.984   117 H    0.981
                           115 H    0.977
    59   1 H    0.954 --     1 N    0.899
    60   1 H    0.996 --     2 C    0.957
    61   1 H    0.962 --     5 N    0.929
    62   1 H    0.991 --     6 C    0.923
    63   1 H    0.998 --     8 C    0.953
    64   1 H    0.965 --    10 N    0.924
    65   1 H    0.997 --    11 C    0.963
    66   1 H    0.998 --    11 C    0.969
    67   1 H    1.000 --    13 C    0.968
    68   1 H    1.000 --    13 C    0.978
    69   1 H    0.998 --    14 C    0.956
    70   1 H    0.885 --    26 O    0.658    17 N    0.206
    71   1 H    0.996 --    18 C    0.945
    72   1 H    0.998 --    18 C    0.977
    73   1 H    0.997 --    23 C    0.965
    74   1 H    0.963 --    27 N    0.915
    75   1 H    0.999 --    28 C    0.974
    76   1 H    0.999 --    28 C    0.973
    77   1 H    0.996 --    30 C    0.967
    78   1 H    0.999 --    30 C    0.980
    79   1 H    0.997 --    31 C    0.939
    80   1 H    0.998 --    33 C    0.976
    81   1 H    1.000 --    33 C    0.978
    82   1 H    0.963 --    34 N    0.923
    83   1 H    0.997 --    35 C    0.964
    84   1 H    0.996 --    35 C    0.973
    85   1 H    0.999 --    36 C    0.968
    86   1 H    0.999 --    36 C    0.981
    87   1 H    0.999 --    38 C    0.966
    88   1 H    0.996 --    38 C    0.964
    89   1 H    0.962 --    39 N    0.928
    90   1 H    0.990 --    39 N    0.976
    91   1 H    0.991 --    40 C    0.948
    92   1 H    0.966 --    43 N    0.929
    93   1 H    0.998 --    44 C    0.959
    94   1 H    0.997 --    45 C    0.975
    95   1 H    0.998 --    45 C    0.975
    96   1 H    0.998 --    45 C    0.978
    97   1 H    1.000 --    47 C    0.982
    98   1 H    0.997 --    47 C    0.979
    99   1 H    0.998 --    47 C    0.976
   100   1 H    0.998 --    48 C    0.970
   101   1 H    0.999 --    48 C    0.963
   102   1 H    0.999 --    50 C    0.983
   103   1 H    0.999 --    50 C    0.986
   104   1 H    0.998 --    50 C    0.988
   105   1 H    0.996 --    51 C    0.974
   106   1 H    0.999 --    51 C    0.965
   107   1 H    0.998 --    52 C    0.976
   108   1 H    0.996 --    52 C    0.971
   109   1 H    1.000 --    53 C    0.963
   110   1 H    0.999 --    53 C    0.975
   111   1 H    0.967 --    54 N    0.918
   112   1 H    0.980 --    56 N    0.950
   113   1 H    0.972 --    57 N    0.947
   114   1 H    0.972 --    57 N    0.949
   115   1 H    0.994 --    58 C    0.977
   116   1 H    0.999 --    58 C    0.984
   117   1 H    0.998 --    58 C    0.981
 ---------------------------------------------------------------------------

Topologies differ in total number of bonds
Writing topology from bond orders to xtbtopo.mol

molecular dipole:
                 x           y           z       tot (Debye)
 q only:       -0.178      13.005       1.786
   full:        0.300      12.613       1.378      32.259
molecular quadrupole (traceless):
                xx          xy          yy          xz          yz          zz
 q only:        6.200      33.877     -77.626      45.511     -99.396      71.426
  q+dip:      -11.566      43.547     -71.985      45.385     -99.306      83.552
   full:      -12.539      44.159     -70.395      45.004     -99.886      82.934


           -------------------------------------------------
          | TOTAL ENERGY             -185.526520267789 Eh   |
          | GRADIENT NORM               0.420718694714 Eh/α |
          | HOMO-LUMO GAP               0.346868556767 eV   |
           -------------------------------------------------

------------------------------------------------------------------------
 * finished run on 2026/05/23 at 12:55:12.089     
------------------------------------------------------------------------
 total:
 * wall-time:     0 d,  0 h,  0 min, 15.464 sec
 *  cpu-time:     0 d,  0 h,  0 min, 27.832 sec
 * ratio c/w:     1.800 speedup
 SCF:
 * wall-time:     0 d,  0 h,  0 min, 14.730 sec
 *  cpu-time:     0 d,  0 h,  0 min, 26.589 sec
 * ratio c/w:     1.805 speedup

normal termination of xtb
