      -----------------------------------------------------------      
     |                   =====================                   |     
     |                           x T B                           |     
     |                   =====================                   |     
     |                         S. Grimme                         |     
     |          Mulliken Center for Theoretical Chemistry        |     
     |                    University of Bonn                     |     
      -----------------------------------------------------------      

   * xtb version 6.7.1 (26dd68d) compiled by 'froitzheim@fs7' on 2026-05-14

   xtb is free software: you can redistribute it and/or modify it under
   the terms of the GNU Lesser General Public License as published by
   the Free Software Foundation, either version 3 of the License, or
   (at your option) any later version.
   
   xtb is distributed in the hope that it will be useful,
   but WITHOUT ANY WARRANTY; without even the implied warranty of
   MERCHANTABILITY or FITNESS FOR A PARTICULAR PURPOSE.  See the
   GNU Lesser General Public License for more details.
   
   Cite this work as:
   * C. Bannwarth, E. Caldeweyher, S. Ehlert, A. Hansen, P. Pracht,
     J. Seibert, S. Spicher, S. Grimme, WIREs Comput. Mol. Sci., 2020, 11,
     e01493. DOI: 10.1002/wcms.1493
   
   for g-xTB:
   * T. Froitzheim, M. Müller, A. Hansen, S. Grimme, ChemRxiv, 2025, preprint.
     DOI: 10.26434/chemrxiv-2025-bjxv
   for GFN2-xTB:
   * C. Bannwarth, S. Ehlert and S. Grimme., J. Chem. Theory Comput., 2019,
     15, 1652-1671. DOI: 10.1021/acs.jctc.8b01176
   for GFN1-xTB:
   * S. Grimme, C. Bannwarth, P. Shushkov, J. Chem. Theory Comput., 2017,
     13, 1989-2009. DOI: 10.1021/acs.jctc.7b00118
   for GFN0-xTB:
   * P. Pracht, E. Caldeweyher, S. Ehlert, S. Grimme, ChemRxiv, 2019, preprint.
     DOI: 10.26434/chemrxiv.8326202.v1
   for GFN-FF:
   * S. Spicher and S. Grimme, Angew. Chem. Int. Ed., 2020, 59, 15665-15673.
     DOI: 10.1002/anie.202004239
   
   for ALPB and GBSA implicit solvation:
   * S. Ehlert, M. Stahn, S. Spicher, S. Grimme, J. Chem. Theory Comput.,
     2021, 17, 4250-4261. DOI: 10.1021/acs.jctc.1c00471
   
   for ddCOSMO and CPCM-X implicit solvation:
   * M. Stahn, S. Ehlert, S. Grimme, J. Phys. Chem. A,
     2023, XX, XXXX-XXXX. DOI: 10.1021/acs.jpca.3c04382
   
   for DFT-D4:
   * E. Caldeweyher, C. Bannwarth and S. Grimme, J. Chem. Phys., 2017,
     147, 034112. DOI: 10.1063/1.4993215
   * E. Caldeweyher, S. Ehlert, A. Hansen, H. Neugebauer, S. Spicher,
     C. Bannwarth and S. Grimme, J. Chem. Phys., 2019, 150, 154122.
     DOI: 10.1063/1.5090222
   * E. Caldeweyher, J.-M. Mewes, S. Ehlert and S. Grimme, Phys. Chem. Chem. Phys.
     2020, 22, 8499-8512. DOI: 10.1039/D0CP00502A
   
   for sTDA-xTB:
   * S. Grimme and C. Bannwarth, J. Chem. Phys., 2016, 145, 054103.
     DOI: 10.1063/1.4959605
   
   in the mass-spec context:
   * V. Asgeirsson, C. Bauer and S. Grimme, Chem. Sci., 2017, 8, 4879.
     DOI: 10.1039/c7sc00601b
   * J. Koopman and S. Grimme, ACS Omega 2019, 4, 12, 15120-15133.
     DOI: 10.1021/acsomega.9b02011
   
   for metadynamics refer to:
   * S. Grimme, J. Chem. Theory Comput., 2019, 155, 2847-2862
     DOI: 10.1021/acs.jctc.9b00143
   
   for SPH calculations refer to:
   * S. Spicher and S. Grimme, J. Chem. Theory Comput., 2021, 17, 1701-1714
     DOI: 10.1021/acs.jctc.0c01306
   
   for ONIOM refer to:
   * C. Plett, A. Katbashev, S. Ehlert, S. Grimme, M. Bursch,
     Phys. Chem. Chem. Phys., 2023, 25, 17860-17868. DOI: 10.1039/D3CP02178E
   
   for DIPRO refer to:
   * J. Kohn, N. Gildemeister, S. Grimme, D. Fazzi, A. Hansen,
     J. Chem. Phys. 159, 144106 (2023). DOI: 10.1063/5.0167484
   
   for PTB refer to:
   * S. Grimme, M. Mueller, A. Hansen, J. Chem. Phys., 2023, 158, 124111.
     DOI: 10.1063/5.0137838
   
   with help from (in alphabetical order)
   P. Atkinson, C. Bannwarth, F. Bohle, G. Brandenburg, E. Caldeweyher,
   M. Checinski, S. Dohm, S. Ehlert, S. Ehrlich, M. Friede, T. Froitzheim,
   I. Gerasimov, C. Hölzer, A. Katbashev, J. Kohn, J. Koopman, C. Lavigne,
   S. Lehtola, F. März, M. Müller, F. Musil, H. Neugebauer, J. Pisarek,
   C. Plett, P. Pracht, F. Pultar, J. Seibert, P. Shushkov, S. Spicher,
   M. Stahn, M. Steiner, T. Strunk, J. Stückrath, T. Rose, and J. Unsleber
   
 * started run on 2026/05/23 at 12:55:48.372     
   ID    Z sym.   atoms
    1    7 N      1, 5, 10, 18, 28, 30, 37-39, 41, 47, 48, 56
    2    6 C      2, 3, 6-8, 11-14, 16, 17, 19-25, 27, 29, 31-34, 36, 40,
                  42-45, 49, 51-55
    3    8 O      4, 9, 15, 26, 35, 46, 50
    4    1 H      57-115

           -------------------------------------------------
          |                Calculation Setup                |
           -------------------------------------------------

          program call               : /home/xchen/software/xtb-6.7.1-gxtb/bin/xtb /home/xchen/Test/benchmark/md_sampled/03_6_0978_0/snap_0165.xyz --charge 0 --gxtb --norestart
          coordinate file            : /home/xchen/Test/benchmark/md_sampled/03_6_0978_0/snap_0165.xyz
          omp threads                :                    48

core increment energy         -2.3949795228626E+03 Eh
dispersion energy              2.4186623335514E-02 Eh
molecular charge               0.0000000000000E+00 e
number of electrons            3.0999999999720E+02 e
number of unpaired electrons   0.0000000000000E+00 e
wavefunction                   restricted
integral cutoff                2.6907767250513E+01 bohr
energy convergence             1.0000000000000E-06 Eh
density convergence            2.0000000000000E-05 e

------------------------------------------------------------
  cycle        total energy    energy error   density error
------------------------------------------------------------
      1     -2644.401811984  -2.4944648E+02   0.0000000E+00
      2     -2644.814882625  -4.1307064E-01   1.8909714E-02
      3     -2645.076555660  -2.6167304E-01   1.4890527E-02
      4     -2645.635207596  -5.5865194E-01   1.1806142E-02
      5     -2645.645784665  -1.0577069E-02   9.7293691E-04
      6     -2645.646598384  -8.1371876E-04   1.6436140E-04
      7     -2645.646684839  -8.6454956E-05   6.5343923E-05
      8     -2645.646690768  -5.9287386E-06   1.5576499E-05
      9     -2645.646691616  -8.4778057E-07   4.1676171E-06
------------------------------------------------------------

electronic energy             -2.5069135537643E+02 Eh
total energy                  -2.6456466916157E+03 Eh

Post processing:
 | Mayer-Wiberg bond orders
 | Molecular Multipole Moments

 total:                                  32.439 sec
 - increment                              0.000 sec (  0%)
 - repulsion                              0.013 sec (  0%)
 - dispersion                             0.358 sec (  1%)
 - coulomb                                0.225 sec (  0%)
 - exchange                               0.049 sec (  0%)
 - hamiltonian                           19.005 sec ( 58%)
 - acp                                    0.254 sec (  0%)
 - spin polarization                      0.000 sec (  0%)
 - post processing                        0.131 sec (  0%)
 - scc                                   11.167 sec ( 34%)
 - coulomb gradient                       0.112 sec (  0%)
 - dispersion gradient                    0.060 sec (  0%)
 - exchange gradient                      0.274 sec (  0%)
 - repulsion gradient                     0.005 sec (  0%)
 - acp gradient                           0.360 sec (  1%)
 - hamiltonian gradient                   0.548 sec (  1%)
 - gradient                               1.359 sec (  4%)

         :::::::::::::::::::::::::::::::::::::::::::::::::::::
         ::                     SUMMARY                     ::
         :::::::::::::::::::::::::::::::::::::::::::::::::::::
         :: total energy           -2645.646691615697 Eh    ::
         :: gradient norm              0.449061290405 Eh/a0 ::
         :: HOMO-LUMO gap              8.612996272860 eV    ::
         ::.................................................::
         :: add. restraining           0.000000000000 Eh    ::
         :: total charge               0.000000000000 e     ::
         :::::::::::::::::::::::::::::::::::::::::::::::::::::

           -------------------------------------------------
          |                Property Printout                |
           -------------------------------------------------

    * Orbital Energies and Occupations
------------------------------------------------------------------
      #    Occupation            Energy/Eh            Energy/eV
------------------------------------------------------------------
      1        2.0000           -1.3595517             -36.9953
    ...           ...                  ...                  ...
    143        2.0000           -0.3758526             -10.2275
    144        2.0000           -0.3748163             -10.1993
    145        2.0000           -0.3744423             -10.1891
    146        2.0000           -0.3739778             -10.1765
    147        2.0000           -0.3693267             -10.0499
    148        2.0000           -0.3668777              -9.9833
    149        2.0000           -0.3634200              -9.8892
    150        2.0000           -0.3583126              -9.7502
    151        2.0000           -0.3557492              -9.6804
    152        2.0000           -0.3523200              -9.5871
    153        2.0000           -0.3484103              -9.4807
    154        2.0000           -0.3434028              -9.3445
    155        2.0000           -0.3351619              -9.1202 (HOMO)
    156                         -0.0186401              -0.5072 (LUMO)
    157                         -0.0020771              -0.0565
    158                         -0.0003066              -0.0083
    159                          0.0036807               0.1002
    160                          0.0086306               0.2349
    161                          0.0176531               0.4804
    162                          0.0243323               0.6621
    163                          0.0389985               1.0612
    164                          0.0626353               1.7044
    165                          0.0839680               2.2849
    166                          0.1142529               3.1090
    ...                                ...                  ...
    283                          0.8928288              24.2951
------------------------------------------------------------------
               HL-Gap            0.3165218 Eh            8.6130 eV
------------------------------------------------------------------

Atomic charges and shell populations (in atomic units):
------------------------------------------------------
     #    Z                q          p(s)       p(p)
------------------------------------------------------
     1    7 N      -0.354050      1.410599   3.943451
     2    6 C       0.002524      1.122308   2.875169
     3    6 C       0.400932      1.107519   2.491548
     4    8 O      -0.582809      1.859318   4.723491
     5    7 N      -0.307859      1.369132   3.938727
     6    6 C       0.033759      1.128790   2.837452
     7    6 C       0.414319      1.125826   2.459855
     8    6 C      -0.011733      1.116784   2.894950
     9    8 O      -0.518057      1.857287   4.660769
    10    7 N      -0.365723      1.362859   4.002865
    11    6 C      -0.152523      1.152896   2.999627
    12    6 C       0.395245      1.108301   2.496454
    13    6 C      -0.033319      1.126230   2.907089
    14    6 C       0.019433      1.122199   2.858368
    15    8 O      -0.534996      1.854956   4.680041
    16    6 C      -0.118875      1.152583   2.966292
    17    6 C      -0.103365      1.162649   2.940717
    18    7 N      -0.369755      1.381544   3.988212
    19    6 C      -0.159426      1.140128   3.019298
    20    6 C      -0.093418      1.153466   2.939952
    21    6 C      -0.089102      1.151623   2.937480
    22    6 C       0.422613      1.101419   2.475967
    23    6 C      -0.195793      1.150425   3.045368
    24    6 C      -0.116177      1.138037   2.978139
    25    6 C       0.008573      1.140955   2.850471
    26    8 O      -0.505926      1.852078   4.653848
    27    6 C      -0.073529      1.126999   2.946530
    28    7 N      -0.322429      1.369132   3.953297
    29    6 C      -0.210517      1.154802   3.055716
    30    7 N      -0.406038      1.399826   4.006212
    31    6 C       0.409760      1.100497   2.489743
    32    6 C      -0.186986      1.166367   3.020618
    33    6 C       0.282197      1.090902   2.626901
    34    6 C       0.017932      1.135780   2.846288
    35    8 O      -0.570331      1.863359   4.706972
    36    6 C      -0.070647      1.126841   2.943806
    37    7 N      -0.515677      1.583563   3.932114
    38    7 N      -0.452786      1.414032   4.038754
    39    7 N      -0.264763      1.360971   3.903792
    40    6 C      -0.165854      1.139416   3.026437
    41    7 N      -0.363965      1.353605   4.010359
    42    6 C      -0.039275      1.138743   2.900532
    43    6 C       0.446814      1.096107   2.457078
    44    6 C      -0.185785      1.147938   3.037846
    45    6 C       0.279736      1.111232   2.609032
    46    8 O      -0.524658      1.854101   4.670556
    47    7 N      -0.508166      1.636694   3.871472
    48    7 N      -0.493472      1.410456   4.083016
    49    6 C       0.117312      1.096898   2.785791
    50    8 O      -0.545409      1.800646   4.744763
    51    6 C      -0.276942      1.166740   3.110202
    52    6 C      -0.161133      1.167979   2.993154
    53    6 C      -0.188984      1.150746   3.038238
    54    6 C      -0.198706      1.154250   3.044457
    55    6 C      -0.091762      1.138501   2.953261
    56    7 N      -0.495920      1.471332   4.024588
    57    1 H       0.255290      0.744710
    58    1 H       0.145221      0.854779
    59    1 H       0.275655      0.724345
    60    1 H       0.132979      0.867021
    61    1 H       0.135503      0.864497
    62    1 H       0.273540      0.726460
    63    1 H       0.098085      0.901915
    64    1 H       0.140899      0.859101
    65    1 H       0.112471      0.887529
    66    1 H       0.105259      0.894741
    67    1 H       0.104941      0.895059
    68    1 H       0.269621      0.730379
    69    1 H       0.129855      0.870145
    70    1 H       0.101953      0.898047
    71    1 H       0.100722      0.899278
    72    1 H       0.127024      0.872976
    73    1 H       0.112723      0.887277
    74    1 H       0.113944      0.886056
    75    1 H       0.107174      0.892826
    76    1 H       0.138646      0.861354
    77    1 H       0.101065      0.898935
    78    1 H       0.103153      0.896847
    79    1 H       0.255165      0.744835
    80    1 H       0.125339      0.874661
    81    1 H       0.116367      0.883633
    82    1 H       0.246115      0.753885
    83    1 H       0.132348      0.867652
    84    1 H       0.104613      0.895387
    85    1 H       0.093183      0.906817
    86    1 H       0.079678      0.920322
    87    1 H       0.095285      0.904715
    88    1 H       0.220766      0.779234
    89    1 H       0.238522      0.761478
    90    1 H       0.251904      0.748096
    91    1 H       0.133766      0.866234
    92    1 H       0.097276      0.902724
    93    1 H       0.257807      0.742193
    94    1 H       0.127491      0.872509
    95    1 H       0.084225      0.915775
    96    1 H       0.098783      0.901217
    97    1 H       0.097097      0.902903
    98    1 H       0.205214      0.794786
    99    1 H       0.250880      0.749120
   100    1 H       0.252112      0.747888
   101    1 H       0.088769      0.911231
   102    1 H       0.357365      0.642635
   103    1 H       0.124527      0.875473
   104    1 H       0.095738      0.904262
   105    1 H       0.095539      0.904461
   106    1 H       0.093784      0.906216
   107    1 H       0.101379      0.898621
   108    1 H       0.112294      0.887706
   109    1 H       0.109403      0.890597
   110    1 H       0.094901      0.905099
   111    1 H       0.073100      0.926900
   112    1 H       0.066358      0.933642
   113    1 H       0.103020      0.896980
   114    1 H       0.207734      0.792266
   115    1 H       0.201926      0.798074
------------------------------------------------------


Wiberg/Mayer (AO) data.
largest (>0.10) Wiberg bond orders for each atom

 ---------------------------------------------------------------------------
     #   Z sym  total        # sym  WBO       # sym  WBO       # sym  WBO
 ---------------------------------------------------------------------------
     1   7 N    3.252 --     7 C    1.161     2 C    0.950    57 O    0.898
                             9 C    0.143
     2   6 C    3.928 --    49 C    0.972     1 N    0.950     3 C    0.950
                            58 O    0.915
     3   6 C    3.879 --     4 C    1.588     5 N    1.256     2 C    0.950
     4   8 C    1.883 --     3 C    1.588     5 N    0.158
     5   7 N    3.346 --     3 C    1.256     6 C    0.948    59 O    0.882
                             4 C    0.158
     6   6 C    3.916 --    52 C    0.977     5 N    0.948    60 O    0.934
                            43 C    0.917
     7   6 C    3.853 --     9 C    1.691     1 N    1.161     8 C    0.930
     8   6 C    3.934 --    10 N    0.981    11 C    0.958     7 C    0.930
                            61 O    0.926
     9   8 C    1.984 --     7 C    1.691     1 N    0.143
    10   7 N    3.291 --    12 C    1.186     8 C    0.981    62 O    0.866
                            15 C    0.155
    11   6 C    3.953 --    13 C    1.006    63 O    0.960     8 C    0.958
                            64 O    0.932
    12   6 C    3.873 --    15 C    1.657    10 N    1.186    14 C    0.958
    13   6 C    3.978 --    16 C    1.474    17 C    1.355    11 C    1.006
    14   6 C    3.931 --    19 C    0.997    12 C    0.958    18 N    0.937
                            65 O    0.916
    15   8 C    1.941 --    12 C    1.657    10 N    0.155
    16   6 C    3.965 --    13 C    1.474    20 C    1.363    66 O    0.953
                            21 C    0.118
    17   6 C    3.958 --    21 C    1.462    13 C    1.355    67 O    0.946
                            20 C    0.137
    18   7 N    3.271 --    22 C    1.188    14 C    0.937    68 O    0.893
                            26 C    0.158
    19   6 C    3.956 --    23 C    1.008    14 C    0.997    70 O    0.953
                            69 O    0.943
    20   6 C    3.967 --    24 C    1.490    16 C    1.363    71 O    0.955
                            17 C    0.137
    21   6 C    3.962 --    17 C    1.462    24 C    1.404    72 O    0.949
                            16 C    0.118
    22   6 C    3.867 --    26 C    1.704    18 N    1.188    25 C    0.915
    23   6 C    3.959 --    19 C    1.008    27 C    0.990    74 O    0.954
                            73 O    0.949
    24   6 C    3.972 --    20 C    1.490    21 C    1.404    75 O    0.951
    25   6 C    3.910 --    29 C    0.974    76 O    0.940    28 N    0.934
                            22 C    0.915
    26   8 C    1.981 --    22 C    1.704    18 N    0.158
    27   6 C    3.941 --    30 N    0.999    23 C    0.990    77 O    0.953
                            78 O    0.949
    28   7 N    3.362 --    31 C    1.279    25 C    0.934    79 O    0.883
                            35 C    0.168
    29   6 C    3.954 --    32 C    1.011    25 C    0.974    81 O    0.956
                            80 O    0.954
    30   7 N    3.136 --    33 C    1.043    27 C    0.999    82 O    0.902
    31   6 C    3.882 --    35 C    1.578    28 N    1.279    34 C    0.956
    32   6 C    3.950 --    29 C    1.011    36 C    0.986    84 O    0.960
                            83 O    0.945
    33   6 C    3.939 --    37 N    1.740    38 N    1.122    30 N    1.043
    34   6 C    3.941 --    40 C    0.991    31 C    0.956    85 O    0.933
                            39 N    0.927
    35   8 C    1.872 --    31 C    1.578    28 N    0.168
    36   6 C    3.935 --    41 N    1.007    32 C    0.986    87 O    0.951
                            86 O    0.943
    37   7 N    2.905 --    33 C    1.740    88 O    0.906    38 N    0.110
    38   7 N    3.118 --    33 C    1.122    89 O    0.916    90 O    0.914
                            37 N    0.110
    39   7 N    3.358 --    43 C    1.182    42 C    0.957    34 C    0.927
                            46 C    0.164
    40   6 C    3.959 --    44 C    1.007    34 C    0.991    92 O    0.959
                            91 O    0.947
    41   7 N    3.219 --    45 C    1.091    36 C    1.007    93 O    0.902
                            47 N    0.119
    42   6 C    3.914 --    44 C    1.002    39 N    0.957    95 O    0.948
                            94 O    0.947
    43   6 C    3.863 --    46 C    1.678    39 N    1.182     6 C    0.917
    44   6 C    3.964 --    40 C    1.007    42 C    1.002    97 O    0.959
                            96 O    0.958
    45   6 C    3.924 --    47 N    1.697    48 N    1.100    41 N    1.091
    46   8 C    1.978 --    43 C    1.678    39 N    0.164
    47   7 N    2.879 --    45 C    1.697    98 O    0.922    41 N    0.119
    48   7 N    3.086 --    45 C    1.100   100 O    0.916    99 O    0.910
    49   6 C    3.915 --    51 C    0.990     2 C    0.972    50 C    0.966
                           101 O    0.939
    50   8 C    1.904 --    49 C    0.966   102 O    0.847
    51   6 C    3.953 --    49 C    0.990   105 O    0.973   103 O    0.967
                           104 O    0.966
    52   6 C    3.956 --    53 C    0.995     6 C    0.977   106 O    0.964
                           107 O    0.958
    53   6 C    3.958 --    54 C    1.013    52 C    0.995   109 O    0.956
                           108 O    0.954
    54   6 C    3.969 --    53 C    1.013    55 C    1.004   110 O    0.955
                           111 O    0.954
    55   6 C    3.952 --    56 N    1.016    54 C    1.004   112 O    0.958
                           113 O    0.953
    56   7 N    2.947 --    55 C    1.016   114 O    0.942   115 O    0.938
    57   1 O    0.935 --     1 N    0.898
    58   1 O    0.979 --     2 C    0.915
    59   1 O    0.924 --     5 N    0.882
    60   1 O    0.982 --     6 C    0.934
    61   1 O    0.982 --     8 C    0.926
    62   1 O    0.925 --    10 N    0.866
    63   1 O    0.990 --    11 C    0.960
    64   1 O    0.980 --    11 C    0.932
    65   1 O    0.987 --    14 C    0.916
    66   1 O    0.989 --    16 C    0.953
    67   1 O    0.989 --    17 C    0.946
    68   1 O    0.927 --    18 N    0.893
    69   1 O    0.983 --    19 C    0.943
    70   1 O    0.990 --    19 C    0.953
    71   1 O    0.990 --    20 C    0.955
    72   1 O    0.984 --    21 C    0.949
    73   1 O    0.987 --    23 C    0.949
    74   1 O    0.987 --    23 C    0.954
    75   1 O    0.989 --    24 C    0.951
    76   1 O    0.981 --    25 C    0.940
    77   1 O    0.990 --    27 C    0.953
    78   1 O    0.989 --    27 C    0.949
    79   1 O    0.935 --    28 N    0.883
    80   1 O    0.984 --    29 C    0.954
    81   1 O    0.986 --    29 C    0.956
    82   1 O    0.939 --    30 N    0.902
    83   1 O    0.982 --    32 C    0.945
    84   1 O    0.989 --    32 C    0.960
    85   1 O    0.991 --    34 C    0.933
    86   1 O    0.994 --    36 C    0.943
    87   1 O    0.991 --    36 C    0.951
    88   1 O    0.951 --    37 N    0.906
    89   1 O    0.943 --    38 N    0.916
    90   1 O    0.937 --    38 N    0.914
    91   1 O    0.982 --    40 C    0.947
    92   1 O    0.991 --    40 C    0.959
    93   1 O    0.934 --    41 N    0.902
    94   1 O    0.984 --    42 C    0.947
    95   1 O    0.993 --    42 C    0.948
    96   1 O    0.990 --    44 C    0.958
    97   1 O    0.991 --    44 C    0.959
    98   1 O    0.958 --    47 N    0.922
    99   1 O    0.937 --    48 N    0.910
   100   1 O    0.936 --    48 N    0.916
   101   1 O    0.992 --    49 C    0.939
   102   1 O    0.872 --    50 C    0.847
   103   1 O    0.984 --    51 C    0.967
   104   1 O    0.991 --    51 C    0.966
   105   1 O    0.991 --    51 C    0.973
   106   1 O    0.991 --    52 C    0.964
   107   1 O    0.990 --    52 C    0.958
   108   1 O    0.987 --    53 C    0.954
   109   1 O    0.988 --    53 C    0.956
   110   1 O    0.991 --    54 C    0.955
   111   1 O    0.995 --    54 C    0.954
   112   1 O    0.996 --    55 C    0.958
   113   1 O    0.989 --    55 C    0.953
   114   1 O    0.957 --    56 N    0.942
   115   1 O    0.959 --    56 N    0.938
 ---------------------------------------------------------------------------

Topologies differ in total number of bonds
Writing topology from bond orders to xtbtopo.mol

Atomic dipole moments (in atomic units):
---------------------------------------------------------
     #    Z                 x            y            z
---------------------------------------------------------
           total     3.530662    -3.270962     0.581088
---------------------------------------------------------
         |total|     4.847930    12.322210 Debye


           -------------------------------------------------
          | TOTAL ENERGY            -2645.646691615697 Eh   |
          | GRADIENT NORM               0.449061290405 Eh/α |
           -------------------------------------------------

------------------------------------------------------------------------
 * finished run on 2026/05/23 at 12:56:21.967     
------------------------------------------------------------------------
 total:
 * wall-time:     0 d,  0 h,  0 min, 33.595 sec
 *  cpu-time:     0 d,  0 h,  1 min, 21.621 sec
 * ratio c/w:     2.430 speedup
 SCF:
 * wall-time:     0 d,  0 h,  0 min, 32.875 sec
 *  cpu-time:     0 d,  0 h,  1 min, 20.738 sec
 * ratio c/w:     2.456 speedup

normal termination of xtb
